# vtk DataFile Version 3.0
2D Bump
ASCII
DATASET UNSTRUCTURED_GRID
POINTS 835 double
0 0 0.0
1 0 0.0
2.2 -0.321539 0.0
2.2 1 0.0
0 1 0.0
0.149616 0 0.0
0.293148 0 0.0
0.412886 0 0.0
0.511623 0 0.0
0.593043 0 0.0
0.660184 0 0.0
0.715549 0 0.0
0.761204 0 0.0
0.798852 0 0.0
0.829897 0 0.0
0.855497 0 0.0
0.876607 0 0.0
0.894015 0 0.0
0.90837 0 0.0
0.920207 0 0.0
0.929968 0 0.0
0.938017 0 0.0
0.944654 0 0.0
0.950128 0 0.0
0.955115 0 0.0
0.960102 0 0.0
0.96509 0 0.0
0.970077 0 0.0
0.975064 0 0.0
0.980051 0 0.0
0.985038 0 0.0
0.990026 0 0.0
0.995013 0 0.0
1.00476 -0.00127495 0.0
1.00952 -0.00254989 0.0
1.01427 -0.00382484 0.0
1.01903 -0.00509978 0.0
1.02379 -0.00637473 0.0
1.02855 -0.00764967 0.0
1.03331 -0.00892462 0.0
1.03807 -0.0101996 0.0
1.04282 -0.0114745 0.0
1.04758 -0.0127495 0.0
1.05269 -0.014117 0.0
1.05885 -0.0157682 0.0
1.0663 -0.0177659 0.0
1.07532 -0.0201828 0.0
1.08624 -0.0231067 0.0
1.09944 -0.0266441 0.0
1.11541 -0.0309238 0.0
1.13473 -0.0361015 0.0
1.15811 -0.0423655 0.0
1.18639 -0.0499438 0.0
1.22061 -0.0591123 0.0
1.26201 -0.0702044 0.0
1.31209 -0.083624 0.0
1.37268 -0.0998592 0.0
1.44598 -0.119501 0.0
1.53467 -0.143264 0.0
1.64196 -0.172013 0.0
1.77177 -0.206794 0.0
1.91451 -0.245042 0.0
2.05726 -0.283291 0.0
2.2 -0.174701 0.0
2.2 -0.0278637 0.0
2.2 0.118974 0.0
2.2 0.265812 0.0
2.2 0.412649 0.0
2.2 0.559487 0.0
2.2 0.706325 0.0
2.2 0.853162 0.0
2.05333 1 0.0
1.90667 1 0.0
1.76 1 0.0
1.61333 1 0.0
1.46667 1 0.0
1.32 1 0.0
1.17333 1 0.0
1.02667 1 0.0
0.88 1 0.0
0.733333 1 0.0
0.586667 1 0.0
0.44 1 0.0
0.293333 1 0.0
0.146667 1 0.0
0 0.857143 0.0
0 0.714286 0.0
0 0.571429 0.0
0 0.428571 0.0
0 0.285714 0.0
0 0.142857 0.0
1.04155 -0.00671635 0.0
1.00294 0.00356117 0.0
0.95268 0.00464183 0.0
1.09563 -0.0144337 0.0
0.901424 0.0113031 0.0
0.817016 0.0227986 0.0
1.17638 -0.0251413 0.0
0.97257 0.00431904 0.0
0.689046 0.0434356 0.0
1.30001 -0.0345167 0.0
1.50748 -0.0612602 0.0
0.934126 0.00633373 0.0
1.05768 -0.00893566 0.0
1.02718 -0.0024952 0.0
1.08467 0.885855 0.0
0.128127 0.501026 0.0
0.655088 0.882095 0.0
1.53184 0.894006 0.0
2.07283 0.33923 0.0
0.469608 0.0836122 0.0
0.866525 0.0149693 0.0
1.12867 -0.0182137 0.0
1.07186 -0.0103387 0.0
0.963353 0.00424548 0.0
1.72011 -0.087431 0.0
2.07283 0.632906 0.0
0.36746 0.872961 0.0
1.82073 0.862652 0.0
2.07475 0.0490196 0.0
0.221382 0.113999 0.0
0.126727 0.767007 0.0
2.01698 -0.148014 0.0
0.941336 0.00524427 0.0
0.939596 0.012447 0.0
0.914288 0.00935232 0.0
0.910209 0.0213335 0.0
0.930757 0.0136442 0.0
0.936034 0.0197983 0.0
0.895239 0.0242289 0.0
0.903977 0.0353031 0.0
0.927547 0.0214863 0.0
0.932998 0.0282258 0.0
0.92398 0.0302593 0.0
0.738376 0.0360711 0.0
0.725411 0.0821889 0.0
0.667192 0.0929646 0.0
0.702973 0.135447 0.0
0.756832 0.124738 0.0
0.738428 0.176309 0.0
0.790256 0.166106 0.0
0.77294 0.215696 0.0
0.819857 0.20571 0.0
0.93047 0.0390175 0.0
0.720061 0.228652 0.0
0.807112 0.254426 0.0
0.860961 0.236864 0.0
0.842156 0.294333 0.0
0.894227 0.281428 0.0
0.914091 0.23415 0.0
0.943451 0.270509 0.0
0.958339 0.227321 0.0
0.986317 0.257725 0.0
0.997797 0.219114 0.0
1.02627 0.246298 0.0
1.03551 0.204775 0.0
1.06625 0.238301 0.0
1.07567 0.200306 0.0
1.10518 0.229265 0.0
1.09544 0.271017 0.0
1.13828 0.26066 0.0
0.981741 0.310586 0.0
1.05303 0.172809 0.0
1.08139 0.165458 0.0
1.06075 0.144921 0.0
1.03567 0.149545 0.0
1.04382 0.123986 0.0
1.06692 0.123336 0.0
1.0219 0.130149 0.0
1.02643 0.11015 0.0
1.00894 0.114504 0.0
1.01423 0.0983339 0.0
0.999483 0.101121 0.0
1.00541 0.0874077 0.0
1.01737 0.0845395 0.0
1.00965 0.0759654 0.0
1.01973 0.0733072 0.0
1.01281 0.0663477 0.0
1.02154 0.0627322 0.0
1.00374 0.068161 0.0
1.00686 0.0590311 0.0
0.999411 0.061185 0.0
1.00163 0.0543819 0.0
0.995273 0.0557262 0.0
0.997324 0.05018 0.0
1.00279 0.0487991 0.0
0.987624 0.00420678 0.0
0.991615 0.051011 0.0
0.989448 0.056398 0.0
0.999396 0.0451733 0.0
1.00429 0.0439991 0.0
0.985746 0.051565 0.0
0.983441 0.0572164 0.0
1.00086 0.0403735 0.0
1.00573 0.0392164 0.0
1.0023 0.0355875 0.0
1.00716 0.0344363 0.0
0.979877 0.0522683 0.0
0.97683 0.0581115 0.0
0.982266 0.0469422 0.0
0.976873 0.0473126 0.0
0.979112 0.0426383 0.0
1.12698 0.311136 0.0
1.18294 0.288024 0.0
0.974051 0.0429211 0.0
0.976257 0.0384255 0.0
0.971375 0.0385979 0.0
0.969645 0.04247 0.0
1.01059 0.0380651 0.0
1.01203 0.0332835 0.0
1.01546 0.0369201 0.0
1.0169 0.0321314 0.0
1.02033 0.0357682 0.0
1.02176 0.0309783 0.0
1.02519 0.0346149 0.0
1.02663 0.0298248 0.0
1.03006 0.0334613 0.0
1.03149 0.0286712 0.0
1.03492 0.0323077 0.0
1.03636 0.0275106 0.0
1.03982 0.0312122 0.0
1.04125 0.0263333 0.0
1.04509 0.0300318 0.0
1.04346 0.0351974 0.0
1.04922 0.0340609 0.0
1.04755 0.0402176 0.0
1.05442 0.0386896 0.0
1.05226 0.0460808 0.0
1.06036 0.0442278 0.0
1.04637 0.0249931 0.0
1.02319 0.0261885 0.0
0.973609 0.0341694 0.0
1.0619 0.0365671 0.0
1.06921 0.0418964 0.0
1.16604 0.355305 0.0
1.22963 0.339667 0.0
0.968691 0.0343652 0.0
1.24757 0.272899 0.0
1.29771 0.322086 0.0
1.03779 0.0227176 0.0
1.00373 0.0308013 0.0
1.31103 0.252368 0.0
1.36447 0.294415 0.0
0.978621 0.0342499 0.0
1.07007 0.0317592 0.0
1.0794 0.0402256 0.0
1.02899 0.0700243 0.0
1.05771 0.0524734 0.0
0.992921 0.116675 0.0
1.27494 0.398134 0.0
0.970915 0.0299556 0.0
0.965925 0.0301974 0.0
0.982578 0.101286 0.0
0.976102 0.118197 0.0
0.966133 0.104507 0.0
0.95877 0.120834 0.0
0.947815 0.10613 0.0
0.878249 0.337495 0.0
0.818813 0.350525 0.0
0.866298 0.403964 0.0
0.784851 0.415813 0.0
0.940004 0.123574 0.0
0.929305 0.107865 0.0
0.84072 0.479636 0.0
1.02861 0.0381985 0.0
0.968202 0.025757 0.0
0.963207 0.0260006 0.0
0.960922 0.0304988 0.0
1.25528 0.206071 0.0
1.32113 0.185909 0.0
1.01889 0.0405583 0.0
1.01346 0.0284954 0.0
0.973192 0.0255169 0.0
0.99887 0.0319532 0.0
1.0003 0.0271652 0.0
0.642845 0.149081 0.0
0.981149 0.0638557 0.0
0.973581 0.064874 0.0
1.04478 0.046968 0.0
0.995438 0.0283187 0.0
0.996872 0.0235288 0.0
1.00174 0.0223757 0.0
0.992007 0.0246821 0.0
0.756069 0.497143 0.0
0.919624 0.126928 0.0
0.90842 0.105733 0.0
1.08229 0.0284995 0.0
1.09236 0.0365856 0.0
1.08828 0.0502627 0.0
1.10207 0.0461877 0.0
1.09831 0.0611781 0.0
1.11487 0.0575399 0.0
1.10971 0.0735107 0.0
1.12998 0.0700102 0.0
1.27191 0.14675 0.0
1.13343 0.0486848 0.0
1.15185 0.0647871 0.0
1.14208 0.0904012 0.0
0.924627 0.460164 0.0
0.693864 0.422461 0.0
0.657426 0.516208 0.0
0.591213 0.431299 0.0
0.958211 0.0262533 0.0
0.955923 0.0306917 0.0
1.32979 0.126173 0.0
1.3834 0.163313 0.0
0.960497 0.0217999 0.0
0.984382 0.0411968 0.0
0.998306 0.018739 0.0
0.899296 0.547063 0.0
0.989556 0.52415 0.0
0.970485 0.0213129 0.0
0.975359 0.0210089 0.0
0.939743 0.0904082 0.0
1.00317 0.0175859 0.0
0.986425 0.132726 0.0
1.09448 0.0240841 0.0
0.952283 0.139631 0.0
0.955497 0.0220467 0.0
1.07349 0.0212684 0.0
1.00846 0.0481019 0.0
0.548261 0.537789 0.0
0.895487 0.132236 0.0
0.882292 0.110268 0.0
0.911178 0.148934 0.0
1.17256 0.0827361 0.0
1.16535 0.111736 0.0
1.17972 0.0540831 0.0
0.957788 0.0175898 0.0
0.478696 0.443794 0.0
0.958672 0.0354054 0.0
0.952833 0.0356725 0.0
0.956137 0.0407973 0.0
0.96909 0.0584098 0.0
0.965275 0.0658452 0.0
0.978432 0.0717276 0.0
0.892437 0.0876583 0.0
0.868421 0.0898857 0.0
1.15781 0.212342 0.0
0.990573 0.029472 0.0
0.960642 0.0587489 0.0
0.949495 0.0411863 0.0
0.418095 0.537535 0.0
1.20383 0.0748335 0.0
1.21098 0.0415396 0.0
0.987286 0.0256989 0.0
0.98881 0.0210857 0.0
1.0824 0.0661969 0.0
0.972751 0.0168566 0.0
0.977622 0.0165506 0.0
0.952852 0.0177849 0.0
0.950475 0.0223054 0.0
0.531044 0.330353 0.0
0.95582 0.0675173 0.0
1.10236 0.368358 0.0
1.14188 0.421347 0.0
0.410527 0.346478 0.0
0.995841 0.0414289 0.0
0.999722 0.0137776 0.0
0.96499 0.621348 0.0
1.06136 0.589382 0.0
0.862606 0.647087 0.0
0.867182 0.132991 0.0
1.39475 0.0956403 0.0
1.45512 0.14644 0.0
0.951247 0.0577006 0.0
1.24028 0.0665757 0.0
0.87808 0.0692228 0.0
0.852923 0.0685552 0.0
0.841876 0.0928401 0.0
0.96153 0.0739616 0.0
1.03054 0.0609894 0.0
1.03779 0.0670138 0.0
1.03648 0.07698 0.0
1.04665 0.07357 0.0
1.04477 0.0857148 0.0
1.05693 0.081547 0.0
1.02495 0.0550877 0.0
1.13499 0.119695 0.0
1.00459 0.0125967 0.0
1.01278 0.00121402 0.0
1.00803 0.0163996 0.0
1.00947 0.0116049 0.0
1.0129 0.0152754 0.0
1.01434 0.0104827 0.0
1.01777 0.0141247 0.0
1.0192 0.00933517 0.0
1.02263 0.0129735 0.0
1.02407 0.00818331 0.0
1.0275 0.0118192 0.0
1.02889 0.00687544 0.0
1.03236 0.0106399 0.0
1.03375 0.00569218 0.0
1.03722 0.00947861 0.0
1.03867 0.00475992 0.0
1.04209 0.00836111 0.0
1.04355 0.00364956 0.0
1.04697 0.00725061 0.0
1.0484 0.00243822 0.0
1.05199 0.00601661 0.0
1.05047 0.0111306 0.0
1.05573 0.00982618 0.0
1.05748 0.00424619 0.0
1.05417 0.0152782 0.0
1.06196 0.00870702 0.0
0.987238 0.0688702 0.0
0.994872 0.0150736 0.0
0.962783 0.0173518 0.0
1.02606 0.016609 0.0
1.01633 0.0189154 0.0
1.04061 0.0131298 0.0
0.996308 0.0103122 0.0
1.06389 0.00193129 0.0
1.03546 0.000938454 0.0
1.06924 0.0073687 0.0
0.984168 0.079111 0.0
0.945717 0.0679332 0.0
0.939788 0.0589493 0.0
0.90085 0.0675183 0.0
1.02067 0.00432337 0.0
1.15676 0.144191 0.0
0.955116 0.0133758 0.0
0.949776 0.012914 0.0
0.934224 0.0687434 0.0
0.927584 0.059061 0.0
0.978844 0.024934 0.0
1.19056 0.134934 0.0
1.03191 0.0531076 0.0
0.630526 0.632793 0.0
0.889151 0.038609 0.0
0.991189 0.0114907 0.0
1.02655 0.0486429 0.0
1.02084 0.0497695 0.0
1.03328 0.046056 0.0
0.970273 0.192497 0.0
1.2471 0.0254186 0.0
1.28013 0.0519775 0.0
1.01378 0.152792 0.0
0.975036 0.0125054 0.0
0.980024 0.0121795 0.0
0.970062 0.0127747 0.0
0.59973 0.10323 0.0
0.573582 0.163835 0.0
0.945954 0.0353722 0.0
0.94298 0.732048 0.0
0.935012 0.198525 0.0
0.894717 0.197758 0.0
[...]
CELL_DATA 1577
SCALARS Mach double 1
LOOKUP_TABLE default
2.5
2.5
2.5
2.50016
2.5
2.5
2.5
2.5
2.5
2.5
2.5
2.5
2.5
2.49259
2.5
2.5
2.5
2.5
2.49448
2.49999
2.5
2.5
2.5
2.5
2.5
2.5
2.96282
2.5
2.5
2.5
2.53441
2.5
2.5
2.5
2.5
2.77202
3.14731
2.5
3.34744
2.5
2.5
3.22795
2.5
2.5
2.5
3.28838
2.5
2.5
2.5
2.49943
2.5
2.5
2.5
2.5
2.5
2.5
2.5
2.5
3.2709
2.97365
3.10866
2.50006
2.5
2.62652
2.69174
2.5
2.5
3.26619
2.5
2.5
2.5
2.5
2.5
2.5
2.5
3.36824
2.5
2.5
2.90486
2.7104
2.5
2.5
2.5
2.66362
2.50011
2.5
3.08063
3.26683
2.5
2.5
2.55926
2.5
2.5
2.5
2.5
2.5
2.77383
3.23704
2.5
2.49576
2.5
3.21771
2.5
2.5
2.67158
2.5
2.5
2.74187
2.5
2.5
2.94292
3.18527
2.5
2.5
2.5
2.87827
2.5
2.5551
2.5
2.5
2.49999
2.5
2.5
2.5
2.5
2.49955
2.5
2.5
2.5
2.5
2.5
2.5
2.5
2.5
2.5
3.24522
2.5
2.5
2.5
2.5
2.5
2.5
2.5
2.49998
2.5
2.5
2.56192
2.5
2.49541
2.50014
2.5
3.25726
2.5
2.56507
2.5
2.5
2.5
2.5
2.5
2.5
2.5
2.5
2.5
2.98673
2.5
2.50012
2.49637
2.5
2.5
2.50023
2.5
2.5
2.51445
2.5
2.5
2.5
2.5
2.5
2.79916
2.5
2.5
2.5
2.5
3.25274
2.5
3.24126
2.5
2.5
2.5
2.95344
2.5
2.5
3.22479
2.5
2.5
2.5
2.5
2.5
2.5
2.5
2.5
2.5
3.1922
2.49836
2.49985
2.5
2.5
2.5
3.21694
2.5
2.5
2.5
2.5
2.5
2.49772
2.5
2.5
2.49999
2.69117
2.5
3.24845
2.5
2.5
2.5
2.49767
2.5
2.5
2.5
2.5
2.5
2.76159
2.75435
2.50001
2.50031
2.5
2.81502
2.5
2.5
2.5
2.5
2.50015
3.24724
3.257
2.96731
2.87741
2.5
3.15292
2.5
3.12017
2.50003
2.49967
2.49644
2.5
2.5
2.5
2.55603
2.5
2.5
2.5
2.5
2.5
2.5
2.5
2.5
2.5
2.5
2.5
2.5
3.2024
2.5
2.85967
2.5
2.49754
2.5
2.5
2.50004
2.5
3.13082
2.50024
2.5
2.5
2.49709
2.5
2.5
2.5
2.5
3.21108
2.54236
3.26983
2.49982
2.5
2.5
3.26204
2.5
2.5
2.5
2.5
2.50021
2.49985
2.83023
2.5
2.5002
2.50017
3.23418
2.5
3.061
2.5
2.52017
2.5
2.49997
3.08698
2.5
2.5
2.5
2.50025
3.36796
3.24138
2.5
2.5
2.5
2.5
2.53476
2.74292
2.5
3.02226
2.5
2.5
2.5
2.5
2.5
2.5
2.5
2.5
2.5
3.2153
2.5
2.5
2.5
2.5
2.6948
2.6408
2.5
2.5
2.5
2.5
2.49997
2.5
2.5
2.50019
2.5
2.5
3.19512
2.49996
2.5
3.21193
2.5
2.49664
3.20486
3.22419
2.56175
2.5
2.5
2.5
2.5
2.5
3.22512
3.05758
2.5
2.5
2.73857
2.8695
2.5
2.5
2.50099
2.98567
2.49993
3.22999
3.23766
2.5
3.21923
2.5
2.5
2.5
2.5
2.5
2.5
2.83692
2.5
3.21025
2.5
2.5
2.49995
2.5
2.5
2.5
2.5
2.49973
2.5
2.5
2.5
2.5
2.5
2.5
2.5
2.5
2.5
2.5
3.16361
2.5
2.5
3.25408
2.5
2.5206
3.14306
2.5
2.5
2.5
2.5
2.55677
2.5
3.05737
2.5
2.5
3.18628
3.18583
2.5
3.18307
2.5
3.19549
3.20472
3.2178
3.2234
3.2264
2.5
3.25128
2.5
2.5
2.5
2.5
2.5
2.5
2.49538
2.5
2.5
2.5
2.5
2.49873
2.61329
2.5
3.10177
2.5
2.58635
2.49486
2.5
3.23024
2.5
2.91634
2.5
2.5
2.5
2.5
2.5
2.49627
2.51882
2.53093
2.5
2.5
2.5643
2.50001
2.5
2.5
2.5
2.5
2.5
2.50311
2.5
2.5
2.5
2.5
2.5
2.5
2.5
2.5
2.5
2.5
2.5
2.5
2.5
2.5
2.5
2.5
2.5
2.5
2.5
2.5
2.5
2.5
2.49999
2.5
2.5
2.5
2.49999
2.5
2.5
2.5
2.5
2.5
2.50002
2.5
2.5
2.5
2.5
2.5
2.50004
2.5
2.50002
2.5
2.5
2.5
2.50001
2.5
2.5
2.50011
2.5
2.5
2.5
2.50038
2.5
2.5
2.5
2.49981
2.49659
2.5
2.50001
2.77341
2.5
2.49419
2.49955
2.76536
2.49778
2.50429
2.67503
2.49743
2.50011
2.84279
2.51268
2.75652
2.87
2.91419
2.5983
2.49587
2.52761
2.7643
2.98584
3.14628
2.91844
2.6787
2.84476
2.59386
2.50625
2.67678
2.76547
3.08808
2.95815
2.54678
2.52819
2.8285
2.7574
2.49719
2.57702
2.6702
2.58148
2.5
2.49939
2.50001
2.50049
2.5
2.49943
2.5
2.49424
2.5
2.5
2.5
2.5
2.5
2.5
2.49999
2.5
2.5
2.5
2.5
2.49999
2.5
2.5
2.5
2.5
2.49999
2.5
2.49999
2.5
2.5
2.50004
2.5
2.5
2.5
2.5
2.5
2.5
2.5
2.5
2.5
2.5
2.5
2.5
2.5
2.5
2.5
2.5
2.5
2.5
2.5
2.5
2.5
2.5001
2.5
2.5
2.50011
2.5
2.5
2.49837
2.50001
2.68196
2.49824
2.49999
2.49999
2.49743
2.50007
2.50007
2.5192
2.49901
2.49893
2.68525
2.50041
2.5
2.50371
2.49386
2.61195
2.54915
2.56173
3.22274
2.5
2.49542
2.5
2.5
2.5
2.49505
2.5
2.5
2.5
3.12969
2.5
2.5
2.5
2.5
2.60818
2.49958
2.62075
3.22536
2.49762
2.50217
2.5
3.18961
2.5
2.5
2.49282
3.21092
2.5
2.51596
3.22072
3.22434
2.5
2.68269
2.5
2.5
2.5
2.5
2.50022
2.5
2.5
2.5
3.14703
2.5
2.5
2.5
2.49609
2.5
2.5
2.51132
2.5
2.5
2.51688
2.5
3.22573
2.75319
3.27469
3.40801
3.20396
3.00195
3.23144
2.5
2.53226
2.5
2.49996
2.5
2.5
2.5
2.5
2.5
3.23082
2.5
2.5
2.49608
2.49999
2.49404
2.74398
3.14381
2.96026
2.57841
2.5
2.52006
2.5
2.5
2.5
2.5
2.5
2.5
2.5
2.5
3.23125
3.26325
2.5
2.5
2.5
2.49361
2.5
2.5
3.24482
2.82428
2.5
2.51291
2.5
2.93784
2.71173
3.27205
2.50096
3.256
2.5
2.5
2.5
2.5
2.5
2.5
2.5
2.5
3.2414
2.5
2.5
2.5
2.5
2.5
2.5
2.5
2.49749
2.49466
2.50042
2.76791
3.24897
2.81124
3.03718
2.50871
2.61578
2.5
2.5
2.50017
2.49999
2.5
2.5
2.49924
2.5
2.5
2.68498
2.5
2.49689
2.5
2.5
2.5
2.5
2.5
2.5
2.5
2.5
2.5
2.5
2.5
2.5
2.5
2.5739
2.50032
2.5
3.20005
2.5
3.17905
3.2245
2.5
2.5
3.19911
3.22431
2.50059
2.5001
2.52477
2.5
2.5
2.5
2.75598
3.10526
2.50045
3.09349
3.03111
2.5
3.22486
3.30956
2.5
2.5
2.5
2.5
2.50061
2.5
2.5
2.5
2.5
2.5
3.19926
2.5
2.5
2.5
2.62411
2.50273
3.21159
3.21857
3.22304
2.5
2.5
3.16042
2.89282
3.2207
2.5012
2.65884
2.5
2.5
2.98065
3.22836
2.5
2.5
2.5
2.5
2.5
3.01218
2.5
2.5
3.20716
2.5
3.29967
2.5
2.49998
2.5
2.5
2.5
2.89512
2.5
2.5
2.5
3.00658
2.5
2.64133
2.50073
2.5
2.5
2.5
2.5
2.5
2.5
2.5
2.6227
2.5
2.5
2.5
2.5
2.5
2.60406
2.5
2.5
2.5
2.5
2.5
2.5
2.5
2.5
2.5
2.5
3.23343
2.5
2.5
2.49747
2.5
3.17274
3.22841
2.5
2.5
2.50001
2.5
2.5
2.5
2.5
2.50072
2.5
2.5
2.5
2.4984
3.25497
2.5
2.5
2.5
2.5
2.5
2.5
2.5
3.15655
2.5
2.93194
2.50012
2.50361
2.5
2.49487
2.5
2.5
2.5
2.5
2.5
2.5
2.5
2.5
2.5
2.5
3.20349
2.5
2.5
2.5
2.50009
2.5
2.49282
2.5
2.5
2.5
2.5
2.86601
2.5
2.5
2.5
2.5
2.49672
3.26851
2.5
2.5
2.5
2.5
2.5
3.09512
2.5
2.4948
2.5
2.5
2.50025
2.5
3.02364
2.5
2.49689
2.57683
2.5
2.5
2.5
2.5
2.5
2.5
3.03832
2.5
2.5
2.50887
2.5
2.5
2.5
2.58215
2.73042
3.2256
2.5
2.85977
2.49524
2.49944
3.09864
2.5
2.5
2.5
2.61259
2.5
3.25303
2.5
2.5
2.49998
2.5
2.5
2.5
2.5
2.5
2.64899
2.80841
2.50001
2.5
2.5
2.5
3.35137
2.49369
2.49998
2.5
2.5
2.50004
3.02314
2.50019
2.5
2.54212
2.5
2.5
2.56931
2.5
2.5
2.5
2.5
2.5
2.5
2.5
2.5
2.49889
2.59061
2.5
2.5
2.5
2.49999
2.91101
2.5
3.04672
2.63871
2.50036
2.5
2.80489
2.5
2.5
2.50038
2.75295
2.5
2.5
2.66814
2.81513
2.72829
2.5
3.05802
2.50001
2.49998
2.5
2.5
2.5
2.5
2.5
3.2271
2.50053
2.78427
2.5
2.5
2.67649
2.5
2.5
2.5
2.49998
2.49872
2.5
2.5
3.25698
2.89019
2.5
2.50004
2.5
2.66507
2.49584
2.88244
2.5
2.5
2.5
3.00075
2.5
2.86864
2.5
2.60079
2.5
2.5
2.51722
2.94853
3.24696
2.49485
2.5
2.5
2.5
3.25122
2.96841
2.5
2.5
2.5
2.5
2.53542
2.5
2.5
2.61773
2.67638
2.49999
2.5
2.5
2.5
2.5
2.5
2.5
2.5
2.5
3.13466
2.49986
2.5
2.5
2.5
2.5
2.5
3.24359
2.5
2.5
2.5
2.5
2.56133
2.5
2.50031
2.5
2.5
3.12236
2.53252
2.49999
2.5
2.49844
2.5
2.59166
2.63312
2.5
2.5
2.5
2.5
2.5
3.04506
2.50948
2.5
2.5
2.5
2.5
2.8457
3.1577
2.5
2.5
2.50013
2.49499
2.5
2.5
2.5
2.49654
2.5
2.50986
2.5
2.54783
2.50034
3.12635
2.5
2.5
2.5
2.5
2.69625
2.5
2.5
2.50057
2.5
3.18639
2.49732
2.4971
2.5
2.5
2.5
2.5
3.05625
2.5
2.5
2.5
2.50962
2.5
2.5
3.27022
2.5
2.5
2.6686
2.5
2.5
2.66138
2.5
2.5
2.5
2.5
2.5
2.5
2.5
2.55178
2.5
2.5
2.67464
2.5
2.5
2.5
2.5
2.49691
2.50028
2.5
2.5
2.58213
2.5
2.60563
2.5
2.5
2.49772
2.5
2.5
2.49844
2.49999
2.5
2.50001
2.5
3.23286
2.5
2.5
2.5
2.5
2.5
2.49933
2.5
2.49849
2.5
2.5
2.5
2.5
2.5
3.01496
3.25883
2.85069
3.05859
2.74702
2.49999
2.5
2.5
2.5
2.5
2.5
2.5
2.5
2.5
2.49442
2.90689
2.5
2.5
3.24481
2.5
2.6136
2.82446
2.5
2.5
2.5
2.96077
2.5
2.5
2.70279
2.49671
2.5
2.5
2.5
2.5004
2.5
2.5
2.78739
2.5
2.53705
2.4983
2.49672
2.61436
3.19631
2.51236
3.03206
2.5
2.5
2.51044
3.11419
2.49812
3.20059
3.17111
2.5
2.5
2.49763
2.5
2.5
2.5
2.5
2.5
2.5
2.5
2.5
2.5
2.5
2.5
2.5
2.5
2.5
2.5
2.5
2.5
2.5
2.5
2.53702
2.50046
2.5
2.50062
2.49932
2.5
2.96207
3.25961
2.5
2.5
2.49552
3.25781
2.49196
2.53709
2.5
2.5
2.5
2.49947
3.25245
2.5
2.5
2.4982
2.98529
2.5
2.5
2.5
2.49144
2.5
2.5
2.5
2.74888
2.5
3.1862
2.49974
2.5
2.5
2.5
2.90515
2.5
3.22472
2.5
2.5
2.5
2.5
2.5
3.16632
2.5
2.5
2.5
3.09336
2.5
2.49427
2.49998
2.5
2.5
2.5
2.5
2.87605
2.5
2.5
3.18289
3.40266
2.50757
3.19769
2.49997
2.5
2.72614
3.12583
2.5
2.5
2.48805
2.5
2.49339
3.19556
2.5
2.5
2.5
2.71657
2.5
2.5
2.5
2.5
2.5
2.5
3.21501
2.5
3.22806
2.5
3.18923
2.5
3.25332
2.5
2.5
3.22249
2.5
2.5
2.5
2.49719
2.80722
3.00986
2.5
2.5
2.5
2.5
2.5
2.49934
2.5
2.5
2.5
2.5
2.5
2.5
2.5
2.5
2.5
2.5003
2.49581
2.5
2.5
2.5
2.5
2.5
2.5
2.49588
3.14573
2.5
3.13723
2.5
2.5172
2.5
2.5
2.5
2.55175
2.5
2.5
2.5
2.5
2.49647
2.49965
2.5
2.5
2.50012
2.5
2.49923
2.5
2.5
2.5
2.5
2.5
2.5
2.5
2.50001
2.5
2.49999
2.5
2.5
2.5
2.5
2.5
2.88987
2.5
2.5
2.5
2.5
2.50005
2.50107
2.5
2.82607
2.49998
2.5
2.5
3.10792
2.5
2.5
2.5
2.5
2.5
2.5
2.5
2.5
2.5
2.5
2.5
2.5
2.5
2.50219
2.5
2.5
2.50027
2.5
2.5
2.49996
2.61775
2.5
2.5
2.54946
2.5
2.5
2.5
2.50006
2.5003
2.50011
2.5
2.5
2.5
2.5
2.5
2.4995
2.57704
3.01416
2.50091
2.5
2.5
2.50003
2.5
2.5
2.5
2.5
2.5
2.5
2.49318
2.5
2.52421
2.50034
2.5
2.5
2.5
2.5
2.49996
2.5
2.50031
2.70624
2.50011
2.5
2.5
2.5
2.5
SCALARS Pressure double 1
LOOKUP_TABLE default
101.136
101.136
101.136
101.11
101.136
101.136
101.136
101.136
101.136
101.136
101.136
101.136
101.136
102.278
101.136
101.136
101.136
101.136
101.991
101.138
101.136
101.136
101.136
101.136
101.136
101.136
45.0369
101.136
101.136
101.136
95.8536
101.136
101.136
101.136
101.136
65.0271
28.3791
101.136
25.7654
101.136
101.136
33.1963
101.136
101.136
101.136
29.1725
101.136
101.136
101.136
101.372
101.136
101.136
101.136
101.136
101.136
101.136
101.136
101.136
30.7819
45.8918
39.2612
101.127
101.136
82.8696
74.8589
101.136
101.136
31.0714
101.136
101.136
101.136
101.136
101.136
101.136
101.136
25.5538
101.136
101.136
53.9385
72.9361
101.136
101.136
101.136
77.3224
101.119
101.136
40.79
31.0945
101.136
101.136
92.3079
101.136
101.136
101.136
101.136
101.136
62.9613
32.8973
101.136
101.788
101.136
33.2613
101.136
101.136
74.858
101.136
101.136
69.1035
101.136
101.136
49.8549
35.2297
101.136
101.136
101.136
55.5576
101.136
92.9231
101.136
101.136
101.137
101.136
101.136
101.136
101.136
101.207
101.136
101.136
101.136
101.136
101.136
101.136
101.136
101.136
101.136
30.5723
101.136
101.136
101.136
101.136
101.136
101.136
101.136
101.138
101.136
101.136
90.4504
101.136
101.826
101.121
101.136
31.9355
101.136
91.6558
101.136
101.136
101.136
101.136
101.136
101.136
101.136
101.136
101.136
46.8566
101.136
101.117
101.694
101.136
101.136
101.099
101.136
101.136
99.0553
101.136
101.136
101.136
101.136
101.136
63.1993
101.136
101.136
101.136
101.136
29.6344
101.136
27.0057
101.136
101.136
101.136
49.9989
101.136
101.136
33.3201
101.136
101.136
101.136
101.136
101.136
101.136
101.136
101.136
101.136
32.6146
101.404
101.137
101.136
101.136
101.136
33.3299
101.136
101.136
101.136
101.136
101.136
101.487
101.136
101.136
101.138
74.4429
101.136
30.1686
101.136
101.136
101.136
101.498
101.136
101.136
101.136
101.136
101.136
67.3712
68.1669
101.134
101.087
101.136
61.6706
101.136
101.136
101.136
101.136
101.113
31.9875
32.0576
47.8308
54.8703
101.136
37.3623
101.136
38.9734
101.132
101.209
101.741
101.136
101.136
101.136
92.4788
101.136
101.136
101.136
101.136
101.136
101.136
101.136
101.136
101.136
101.136
101.136
101.136
32.5173
101.136
53.3357
101.136
101.551
101.136
101.136
101.13
101.136
38.2358
101.098
101.136
101.136
101.574
101.136
101.136
101.136
101.136
33.9062
94.7908
29.8383
101.163
101.136
101.136
29.5757
101.136
101.136
101.136
101.136
101.104
101.159
59.8199
101.136
101.106
101.111
30.7153
101.136
42.4984
101.136
98.0753
101.136
101.14
40.9165
101.136
101.136
101.135
101.096
25.6265
29.686
101.136
101.136
101.135
101.136
95.6445
69.2731
101.136
32.1329
101.136
101.136
101.136
101.136
101.136
101.136
101.136
101.136
101.136
33.8119
101.136
101.136
101.136
101.136
74.8217
81.4454
101.136
101.136
101.136
101.136
101.14
101.136
101.136
101.161
101.136
101.136
33.226
101.142
101.136
33.9314
101.136
101.665
33.5111
32.8111
91.9386
101.136
101.136
101.136
101.136
101.136
31.3317
39.2057
101.136
101.136
69.9554
56.8898
101.136
101.136
101.055
47.0502
101.146
33.052
32.6197
101.136
33.3055
101.136
101.136
101.136
101.136
101.136
101.136
59.9543
101.136
29.8077
101.136
101.136
101.144
101.136
101.136
101.136
101.136
101.166
101.136
101.136
101.136
101.136
101.136
101.136
101.136
101.136
101.136
101.136
36.562
101.136
101.136
29.3109
101.136
97.9418
37.2032
101.136
101.136
101.136
101.136
92.9942
101.136
40.2078
101.136
101.136
33.0472
33.2932
101.136
33.7192
101.136
33.5453
33.3991
33.282
33.221
33.1433
101.136
31.9982
101.135
101.136
101.136
101.136
101.136
101.136
101.884
101.136
101.136
101.136
101.136
101.324
84.5897
101.136
37.4907
101.136
88.5686
102.023
101.136
29.9388
101.136
52.7879
101.136
101.136
101.136
101.136
101.136
101.748
98.3086
96.4609
101.136
101.136
91.7223
101.135
101.136
101.136
101.136
101.136
101.136
100.722
101.136
101.136
101.136
101.136
101.136
101.136
101.136
101.136
101.136
101.136
101.136
101.136
101.136
101.136
101.136
101.136
101.136
101.136
101.136
101.136
101.136
101.136
101.137
101.136
101.136
101.136
101.137
101.136
101.136
101.136
101.136
101.136
101.132
101.136
101.136
101.136
101.136
101.136
101.129
101.136
101.132
101.136
101.136
101.136
101.134
101.136
101.136
101.118
101.136
101.136
101.136
101.076
101.136
101.136
101.136
101.186
101.672
101.136
101.118
66.0433
101.136
102.051
101.176
65.913
101.67
100.661
76.8048
101.593
101.1
59.3715
99.5822
67.7482
55.4817
53.2086
86.9988
101.982
97.233
66.6227
47.5055
36.3255
52.5748
76.853
58.8051
87.2645
100.295
76.6997
66.9665
40.7895
49.1744
94.1112
96.8949
60.6225
67.9289
101.615
89.2188
76.7616
89.2659
101.136
101.232
101.134
101.058
101.136
101.224
101.136
102.042
101.136
101.136
101.136
101.136
101.136
101.136
101.137
101.136
101.136
101.136
101.136
101.137
101.136
101.136
101.136
101.136
101.138
101.136
101.138
101.136
101.136
101.129
101.136
101.136
101.136
101.136
101.136
101.136
101.136
101.136
101.136
101.136
101.136
101.136
101.136
101.136
101.136
101.136
101.136
101.136
101.136
101.136
101.136
101.114
101.136
101.136
101.113
101.136
101.136
101.402
101.136
76.1061
101.419
101.139
101.138
101.611
101.124
101.123
98.3134
101.292
101.303
76.0001
101.069
101.136
100.611
102.113
85.2367
93.9187
91.9487
33.1304
101.136
101.926
101.136
101.136
101.136
101.937
101.136
101.136
101.136
37.5608
101.136
101.136
101.136
101.136
85.4859
101.225
83.8228
33.2158
101.494
100.955
101.136
33.6224
101.136
101.136
102.274
33.2948
101.136
98.6987
33.207
33.1813
101.136
76.2939
101.136
101.136
101.136
101.136
101.101
101.136
101.136
101.136
37.3636
101.136
101.136
101.136
101.727
101.136
101.136
99.4265
101.136
101.136
98.9864
101.136
33.1936
64.7957
29.7378
24.3285
31.8175
43.2857
31.6255
101.136
96.3301
101.136
101.141
101.136
101.136
101.136
101.136
101.136
33.0412
101.136
101.136
101.749
101.137
102.138
69.305
36.6083
48.8859
89.8886
101.136
98.2511
101.136
101.136
101.136
101.136
101.136
101.136
101.136
101.136
32.6314
31.2022
101.136
101.136
101.136
102.145
101.136
101.136
32.4041
61.2565
101.136
99.189
101.136
48.2208
70.2269
29.8391
101.057
30.8369
101.136
101.136
101.136
101.136
101.136
101.136
101.136
101.136
32.5905
101.136
101.136
101.136
101.136
101.136
101.136
101.136
101.514
101.996
101.069
66.1593
32.2622
62.3241
43.155
99.9321
84.8719
101.136
101.136
101.111
101.137
101.136
101.136
101.257
101.136
101.136
75.8238
101.136
101.643
101.136
101.136
101.136
101.136
101.136
101.136
101.136
101.136
101.136
101.136
101.136
101.136
101.136
90.1973
101.085
101.136
33.4746
101.136
33.6841
33.1808
101.136
101.136
33.4614
33.2451
101.051
101.12
97.6458
101.136
101.136
101.136
68.0161
38.0834
101.065
39.9128
43.6963
101.136
33.2472
27.2538
101.136
101.136
101.136
101.136
101.039
101.136
101.136
101.136
101.136
101.136
33.3658
101.136
101.136
101.136
83.7411
100.748
33.3419
33.3417
33.268
101.136
101.136
34.3343
54.9546
33.3001
100.946
78.9549
101.136
101.136
48.1726
33.0675
101.136
101.136
101.136
101.136
101.136
45.3026
101.136
101.136
30.5138
101.136
28.7847
101.136
101.139
101.136
101.136
101.136
53.8562
101.136
101.136
101.136
45.0286
101.136
81.3983
101.021
101.136
101.136
101.136
101.136
101.136
101.136
101.136
83.7588
101.136
101.136
101.136
101.136
101.136
85.9929
101.136
101.136
101.136
101.136
101.136
101.136
101.136
101.136
101.136
101.136
30.0906
101.136
101.136
101.521
101.136
36.055
32.1858
101.136
101.135
101.134
101.136
101.136
101.136
101.136
101.034
101.136
101.136
101.136
101.386
31.6664
101.136
101.136
101.136
101.136
101.136
101.136
101.136
36.6038
101.136
50.4375
101.115
100.766
101.136
101.968
101.136
101.136
101.136
101.136
101.136
101.136
101.136
101.136
101.136
101.136
33.0685
101.136
101.136
101.136
101.124
101.136
102.277
101.136
101.136
101.136
101.136
56.7869
101.136
101.136
101.136
101.136
101.679
30.6002
101.136
101.136
101.136
101.136
101.136
37.4038
101.136
101.947
101.136
101.136
101.097
101.136
44.6971
101.136
101.591
89.9132
101.136
101.136
101.136
101.136
101.136
101.136
43.5719
101.136
101.136
99.7209
101.136
101.136
101.136
89.0675
70.1079
33.3074
101.136
57.5701
101.895
101.216
39.3285
101.136
101.136
101.136
85.0256
101.136
32.0315
101.136
101.136
101.139
101.136
101.136
101.135
101.136
101.136
79.7764
62.7826
101.135
101.136
101.136
101.135
27.6616
102.13
101.14
101.136
101.136
101.132
44.9211
101.107
101.136
94.6274
101.136
101.136
90.6793
101.136
101.136
101.136
101.136
101.136
101.136
101.136
101.136
101.308
87.6469
101.136
101.136
101.136
101.137
53.451
101.136
43.3237
81.1253
101.079
101.136
62.9876
101.136
101.136
101.079
66.802
101.136
101.136
77.5459
61.0189
70.1613
101.136
42.5444
101.135
101.14
101.136
101.136
101.136