# vtk DataFile Version 3.0
2D Bump
ASCII
DATASET UNSTRUCTURED_GRID
POINTS 1484 double
-1.5 0 0.0
-0.5 0 0.0
0.5 0 0.0
1.5 0 0.0
1.5 1 0.0
-1.5 1 0.0
-1.45 0 0.0
-1.4 0 0.0
-1.35 0 0.0
-1.3 0 0.0
-1.25 0 0.0
-1.2 0 0.0
-1.15 0 0.0
-1.1 0 0.0
-1.05 0 0.0
-1 0 0.0
-0.95 0 0.0
-0.9 0 0.0
-0.85 0 0.0
-0.8 0 0.0
-0.75 0 0.0
-0.7 0 0.0
-0.65 0 0.0
-0.6 0 0.0
-0.55 0 0.0
-0.452428 0.0103335 0.0
-0.405137 0.0218893 0.0
-0.358028 0.0341677 0.0
-0.310983 0.046692 0.0
-0.263879 0.0589937 0.0
-0.2166 0.0705971 0.0
-0.169044 0.0810038 0.0
-0.121144 0.0896817 0.0
-0.072886 0.0960599 0.0
-0.0243359 0.0995377 0.0
0.0243359 0.0995377 0.0
0.072886 0.0960599 0.0
0.121144 0.0896817 0.0
0.169044 0.0810038 0.0
0.2166 0.0705971 0.0
0.263879 0.0589937 0.0
0.310983 0.046692 0.0
0.358028 0.0341677 0.0
0.405137 0.0218893 0.0
0.452428 0.0103335 0.0
0.55 0 0.0
0.6 0 0.0
0.65 0 0.0
0.7 0 0.0
0.75 0 0.0
0.8 0 0.0
0.85 0 0.0
0.9 0 0.0
0.95 0 0.0
1 0 0.0
1.05 0 0.0
1.1 0 0.0
1.15 0 0.0
1.2 0 0.0
1.25 0 0.0
1.3 0 0.0
1.35 0 0.0
1.4 0 0.0
1.45 0 0.0
1.5 0.05 0.0
1.5 0.1 0.0
1.5 0.15 0.0
1.5 0.2 0.0
1.5 0.25 0.0
1.5 0.3 0.0
1.5 0.35 0.0
1.5 0.4 0.0
1.5 0.45 0.0
1.5 0.5 0.0
1.5 0.55 0.0
1.5 0.6 0.0
1.5 0.65 0.0
1.5 0.7 0.0
1.5 0.75 0.0
1.5 0.8 0.0
1.5 0.85 0.0
1.5 0.9 0.0
1.5 0.95 0.0
1.45 1 0.0
1.4 1 0.0
1.35 1 0.0
1.3 1 0.0
1.25 1 0.0
1.2 1 0.0
1.15 1 0.0
1.1 1 0.0
1.05 1 0.0
1 1 0.0
0.95 1 0.0
0.9 1 0.0
0.85 1 0.0
0.8 1 0.0
0.75 1 0.0
0.7 1 0.0
0.65 1 0.0
0.6 1 0.0
0.55 1 0.0
0.5 1 0.0
0.45 1 0.0
0.4 1 0.0
0.35 1 0.0
0.3 1 0.0
0.25 1 0.0
0.2 1 0.0
0.15 1 0.0
0.1 1 0.0
0.05 1 0.0
5.50449e-12 1 0.0
-0.05 1 0.0
-0.1 1 0.0
-0.15 1 0.0
-0.2 1 0.0
-0.25 1 0.0
-0.3 1 0.0
-0.35 1 0.0
-0.4 1 0.0
-0.45 1 0.0
-0.5 1 0.0
-0.55 1 0.0
-0.6 1 0.0
-0.65 1 0.0
-0.7 1 0.0
-0.75 1 0.0
-0.8 1 0.0
-0.85 1 0.0
-0.9 1 0.0
-0.95 1 0.0
-1 1 0.0
-1.05 1 0.0
-1.1 1 0.0
-1.15 1 0.0
-1.2 1 0.0
-1.25 1 0.0
-1.3 1 0.0
-1.35 1 0.0
-1.4 1 0.0
-1.45 1 0.0
-1.5 0.95 0.0
-1.5 0.9 0.0
-1.5 0.85 0.0
-1.5 0.8 0.0
-1.5 0.75 0.0
-1.5 0.7 0.0
-1.5 0.65 0.0
-1.5 0.6 0.0
-1.5 0.55 0.0
-1.5 0.5 0.0
-1.5 0.45 0.0
-1.5 0.4 0.0
-1.5 0.35 0.0
-1.5 0.3 0.0
-1.5 0.25 0.0
-1.5 0.2 0.0
-1.5 0.15 0.0
-1.5 0.1 0.0
-1.5 0.05 0.0
0.43358 0.0571806 0.0
-0.435491 0.05777 0.0
0.975 0.956699 0.0
0.727626 0.956836 0.0
-0.972336 0.048279 0.0
-0.674975 0.956646 0.0
0.875 0.0426383 0.0
0.248812 0.107954 0.0
-0.250374 0.1024 0.0
-0.925002 0.956699 0.0
-0.724923 0.0433698 0.0
0.524963 0.956713 0.0
0.675076 0.0433923 0.0
-0.475014 0.956719 0.0
1.45755 0.474061 0.0
0.0498228 0.139598 0.0
-0.174952 0.956692 0.0
0.324988 0.959517 0.0
-1.44999 0.522756 0.0
0.123191 0.952841 0.0
1.07357 0.0391147 0.0
-0.105234 0.141041 0.0
-1.11528 0.961049 0.0
-1.45835 0.325 0.0
1.45528 0.674665 0.0
1.17497 0.960897 0.0
-1.175 0.0412026 0.0
1.4556 0.280039 0.0
-0.0266527 0.956256 0.0
-0.324958 0.956654 0.0
-1.4567 0.675 0.0
1.22203 0.0405186 0.0
-1.27431 0.951901 0.0
-0.574836 0.0431581 0.0
-1.4586 0.175 0.0
1.45762 0.822828 0.0
-1.45658 0.823445 0.0
0.152609 0.126824 0.0
1.32077 0.962453 0.0
-1.32546 0.0444273 0.0
0.2283 0.955855 0.0
0.424983 0.956723 0.0
-0.574986 0.956701 0.0
-0.872365 0.0443575 0.0
0.574678 0.0432028 0.0
-1.02667 0.956584 0.0
-1.457 0.425 0.0
1.4577 0.576729 0.0
1.3216 0.0399578 0.0
-0.825017 0.957055 0.0
0.975 0.042127 0.0
0.775008 0.0450124 0.0
0.875 0.956699 0.0
0.62499 0.956712 0.0
1.075 0.957964 0.0
1.45969 0.173053 0.0
1.45813 0.375346 0.0
-1.07723 0.0411171 0.0
-0.343637 0.0802003 0.0
0.346736 0.0813833 0.0
-1.37404 0.953033 0.0
-1.45782 0.0769338 0.0
1.46174 0.926759 0.0
1.42722 0.0422911 0.0
-1.45469 0.919235 0.0
0.000659878 0.141184 0.0
0.0270486 0.182962 0.0
-0.0221012 0.184686 0.0
0.00520114 0.2265 0.0
-0.045088 0.228237 0.0
-0.0170758 0.269915 0.0
-0.0673507 0.271831 0.0
-0.039163 0.313616 0.0
-0.0880594 0.316356 0.0
0.0100808 0.310636 0.0
-0.0120063 0.354685 0.0
0.0371197 0.351662 0.0
0.0148678 0.395862 0.0
0.0639557 0.393017 0.0
0.0417813 0.436954 0.0
0.0909302 0.434147 0.0
-0.0071687 0.439645 0.0
0.0687184 0.478104 0.0
0.117885 0.475313 0.0
0.0956782 0.519303 0.0
0.14486 0.516515 0.0
0.167059 0.472512 0.0
0.19405 0.513653 0.0
0.216227 0.469701 0.0
0.243244 0.51084 0.0
0.265406 0.466846 0.0
0.29245 0.50799 0.0
0.314596 0.46394 0.0
0.341689 0.505174 0.0
0.363874 0.461155 0.0
0.390987 0.502332 0.0
0.413217 0.457812 0.0
0.440358 0.499449 0.0
0.462633 0.454855 0.0
0.489803 0.496536 0.0
0.512124 0.452472 0.0
0.539328 0.493791 0.0
0.561666 0.449575 0.0
0.588928 0.491256 0.0
0.611281 0.446751 0.0
0.638579 0.488464 0.0
0.660951 0.444024 0.0
0.688266 0.485659 0.0
0.71066 0.441187 0.0
0.737995 0.482834 0.0
0.760407 0.438325 0.0
0.787752 0.479998 0.0
0.810179 0.435465 0.0
0.837519 0.476785 0.0
0.859974 0.432543 0.0
0.887329 0.473873 0.0
0.90979 0.429662 0.0
0.937175 0.47138 0.0
0.959621 0.42686 0.0
0.987012 0.468601 0.0
1.00946 0.42402 0.0
0.915924 0.515432 0.0
1.03685 0.465768 0.0
0.765926 0.524085 0.0
1.05931 0.421171 0.0
0.566753 0.534908 0.0
0.369316 0.546162 0.0
0.172048 0.557573 0.0
1.08671 0.462916 0.0
1.06425 0.50752 0.0
1.10916 0.418317 0.0
0.534332 0.407633 0.0
0.733043 0.396671 0.0
1.11411 0.504669 0.0
1.09165 0.54928 0.0
0.932231 0.38516 0.0
0.386043 0.416408 0.0
1.14151 0.546428 0.0
1.11905 0.591045 0.0
1.08176 0.376559 0.0
1.13163 0.373706 0.0
0.238343 0.425789 0.0
1.16893 0.58819 0.0
1.14646 0.632811 0.0
1.09658 0.635663 0.0
1.10421 0.331945 0.0
1.15409 0.329084 0.0
1.1815 0.370853 0.0
1.12426 0.67717 0.0
1.07507 0.679889 0.0
1.17392 0.674541 0.0
1.20397 0.326224 0.0
0.0866267 0.347879 0.0
1.19139 0.543567 0.0
1.17655 0.284454 0.0
1.22643 0.281593 0.0
1.23138 0.367996 0.0
1.15205 0.71906 0.0
1.2014 0.716331 0.0
-0.116888 0.274937 0.0
-0.137074 0.319169 0.0
-0.163437 0.278312 0.0
-0.185621 0.322021 0.0
-0.158789 0.363052 0.0
-0.207691 0.365799 0.0
-0.180819 0.406896 0.0
-0.229861 0.409637 0.0
-0.202975 0.45077 0.0
-0.25208 0.453496 0.0
-0.278984 0.412318 0.0
-0.301235 0.456023 0.0
-0.328161 0.414976 0.0
-0.350406 0.458957 0.0
-0.377378 0.417123 0.0
-0.399697 0.461379 0.0
-0.426635 0.419168 0.0
-0.449042 0.463909 0.0
-0.476042 0.422473 0.0
-0.498458 0.466995 0.0
-0.525507 0.425465 0.0
-0.547984 0.469564 0.0
-0.574945 0.427894 0.0
-0.597557 0.472102 0.0
-0.62472 0.431114 0.0
-0.647221 0.474903 0.0
-0.674451 0.433443 0.0
-0.696924 0.477568 0.0
-0.724191 0.43609 0.0
-0.746659 0.480291 0.0
-0.773894 0.439071 0.0
-0.796414 0.483057 0.0
-0.823647 0.441832 0.0
-0.846172 0.486156 0.0
-0.873439 0.444624 0.0
-0.896001 0.488623 0.0
-0.92326 0.44732 0.0
-0.945834 0.491303 0.0
-0.973095 0.450038 0.0
-0.995674 0.494034 0.0
-0.274859 0.497101 0.0
-0.423267 0.505031 0.0
-1.02294 0.452767 0.0
-1.04549 0.497311 0.0
-0.571951 0.512939 0.0
-0.770977 0.523709 0.0
-0.920406 0.531934 0.0
-1.07279 0.455592 0.0
-1.09534 0.500158 0.0
-1.06804 0.541969 0.0
-1.1179 0.544737 0.0
-1.09059 0.586551 0.0
-1.05019 0.411037 0.0
-1.10009 0.413815 0.0
-0.80102 0.397347 0.0
-0.651708 0.388637 0.0
-0.503047 0.38106 0.0
-1.14047 0.589299 0.0
-1.11315 0.631122 0.0
-1.07748 0.369235 0.0
-1.12739 0.372004 0.0
-1.16303 0.633868 0.0
-1.16777 0.547492 0.0
-0.355081 0.373691 0.0
-1.10482 0.327434 0.0
-1.05492 0.324689 0.0
-1.15471 0.330177 0.0
-1.13571 0.675697 0.0
-1.08625 0.673227 0.0
-1.1856 0.678444 0.0
-1.17728 0.374756 0.0
-1.2046 0.332917 0.0
-1.13214 0.285602 0.0
-1.22718 0.377498 0.0
-0.212357 0.281028 0.0
-1.10846 0.717575 0.0
-1.05901 0.715112 0.0
0.633405 0.40203 0.0
1.22377 0.671726 0.0
1.2512 0.713506 0.0
-1.21292 0.636609 0.0
-1.23548 0.681196 0.0
-1.26279 0.639398 0.0
-1.20817 0.723029 0.0
-1.25805 0.725783 0.0
-0.900702 0.402912 0.0
-0.67147 0.518262 0.0
0.832594 0.390902 0.0
0.665858 0.530131 0.0
0.0464898 0.522075 0.0
0.073481 0.563331 0.0
0.0242177 0.566099 0.0
0.051259 0.607409 0.0
0.00192249 0.610192 0.0
0.0290089 0.651553 0.0
-0.0203853 0.654333 0.0
0.00673268 0.695748 0.0
0.0561789 0.692942 0.0
-0.0427127 0.698514 0.0
-0.0697149 0.657144 0.0
-0.0921547 0.701294 0.0
0.0338754 0.737205 0.0
0.0834155 0.734383 0.0
-0.118934 0.6599 0.0
-0.141476 0.704125 0.0
-0.114519 0.745536 0.0
-0.164009 0.748318 0.0
-0.191024 0.706864 0.0
-0.213551 0.751073 0.0
-0.240705 0.709523 0.0
-0.263228 0.75214 0.0
-0.29032 0.711959 0.0
-0.313316 0.754316 0.0
-0.339988 0.714552 0.0
-0.362929 0.758619 0.0
-0.38959 0.717519 0.0
-0.410589 0.760474 0.0
-0.438927 0.720124 0.0
-0.45927 0.771797 0.0
-0.488436 0.724252 0.0
-0.511349 0.76755 0.0
-0.538524 0.725993 0.0
-0.561079 0.77033 0.0
-0.588334 0.728563 0.0
-0.610852 0.773062 0.0
-0.638125 0.731302 0.0
-0.660646 0.775816 0.0
-0.687932 0.734038 0.0
-0.710462 0.778569 0.0
-0.73775 0.736795 0.0
0.468126 0.540302 0.0
0.270699 0.551889 0.0
-0.0248482 0.568756 0.0
-1.2545 0.335656 0.0
-1.23192 0.291073 0.0
-0.760293 0.781325 0.0
-0.787595 0.739529 0.0
-0.810144 0.784077 0.0
-0.837447 0.742273 0.0
1.22873 0.758144 0.0
-1.08116 0.759426 0.0
-1.03127 0.756681 0.0
-1.01062 0.710992 0.0
1.27366 0.668873 0.0
-0.860003 0.786828 0.0
-1.28183 0.293812 0.0
-1.25925 0.249222 0.0
1.19901 0.239819 0.0
1.2489 0.236956 0.0
1.14913 0.24268 0.0
-1.23074 0.76762 0.0
0.0610553 0.778711 0.0
0.110615 0.77589 0.0
0.132961 0.731553 0.0
0.160183 0.77307 0.0
0.182536 0.728721 0.0
0.209755 0.770248 0.0
0.232098 0.725904 0.0
0.259326 0.767418 0.0
0.281674 0.723071 0.0
0.308912 0.764595 0.0
0.33125 0.720239 0.0
0.358503 0.761763 0.0
0.38085 0.717396 0.0
0.408118 0.758939 0.0
0.430463 0.714512 0.0
0.457758 0.756109 0.0
0.480113 0.711653 0.0
0.507425 0.75328 0.0
0.529799 0.708772 0.0
0.557124 0.750445 0.0
0.579511 0.70591 0.0
[...]
CELL_DATA 2805
SCALARS Mach double 1
LOOKUP_TABLE default
0.427698
0.431509
0.484312
0.499532
0.534058
0.474944
0.498433
0.469427
0.430422
0.512674
0.417926
0.412748
0.53304
0.469382
0.480766
0.47423
0.480812
0.473857
0.417898
0.512491
0.532588
0.506088
0.475662
0.491728
0.453014
0.497368
0.47332
0.4805
0.507789
0.507266
0.496379
0.485667
0.484263
0.532345
0.476529
0.560016
0.513384
0.471904
0.485054
0.50657
0.621715
0.497484
0.485454
0.479194
0.495423
0.508561
0.443415
0.484894
0.436061
0.4971
0.493037
0.49448
0.492952
0.534205
0.509179
0.44404
0.485255
0.533391
0.551226
0.481443
0.491595
0.49095
0.609714
0.570309
0.468712
0.510061
0.596639
0.51081
0.482746
0.479892
0.51316
0.492306
0.476825
0.484361
0.612641
0.560385
0.532785
0.451041
0.582305
0.502635
0.485081
0.480522
0.479284
0.479047
0.618759
0.472723
0.505983
0.44817
0.502717
0.532082
0.498111
0.532528
0.476956
0.475864
0.507365
0.484475
0.532972
0.462505
0.49892
0.532581
0.532435
0.484685
0.589328
0.440922
0.441909
0.472428
0.504521
0.451911
0.446331
0.485925
0.482575
0.582461
0.587078
0.470059
0.481001
0.480307
0.593509
0.51181
0.443483
0.480037
0.483866
0.447495
0.479875
0.484568
0.480563
0.477315
0.466713
0.498359
0.513808
0.480184
0.49808
0.481625
0.475073
0.605629
0.484422
0.498297
0.51177
0.470668
0.47671
0.485258
0.437299
0.500461
0.490305
0.476287
0.532667
0.62627
0.476855
0.511796
0.516021
0.464599
0.635331
0.481128
0.483044
0.48976
0.499261
0.484672
0.50069
0.465839
0.517041
0.511702
0.507989
0.455149
0.533878
0.561121
0.487083
0.483189
0.484587
0.484798
0.514066
0.462609
0.529092
0.582471
0.481414
0.459844
0.457093
0.532804
0.490921
0.565975
0.547311
0.612604
0.484077
0.506737
0.586626
0.483369
0.483883
0.458311
0.485211
0.549982
0.46125
0.454537
0.485602
0.483447
0.532254
0.443449
0.463519
0.570967
0.529881
0.484778
0.446994
0.598392
0.48095
0.535489
0.44337
0.519876
0.487917
0.46301
0.460216
0.532423
0.501741
0.481938
0.514337
0.515585
0.452059
0.485481
0.521882
0.48512
0.512658
0.512055
0.484822
0.497785
0.486562
0.495781
0.486312
0.581649
0.510297
0.532435
0.48459
0.507902
0.532158
0.602736
0.518204
0.456505
0.485841
0.552926
0.487542
0.527534
0.484181
0.454353
0.566242
0.554358
0.485205
0.63846
0.497257
0.467361
0.52813
0.502833
0.547195
0.531297
0.487246
0.521802
0.576053
0.506155
0.507314
0.52202
0.487408
0.524045
0.504401
0.485316
0.488045
0.484771
0.529399
0.491444
0.487044
0.480151
0.524539
0.492466
0.531825
0.563065
0.525714
0.489964
0.523631
0.526389
0.482794
0.525087
0.489653
0.587164
0.584862
0.520412
0.648992
0.608957
0.646124
0.531969
0.506318
0.519404
0.517754
0.485466
0.502609
0.482878
0.478717
0.594271
0.479726
0.504626
0.493268
0.486476
0.607248
0.515269
0.627856
0.532165
0.483848
0.510076
0.496894
0.576083
0.503232
0.541196
0.629954
0.572106
0.4948
0.480293
0.481591
0.507134
0.476276
0.480345
0.478498
0.531543
0.499436
0.498138
0.480636
0.598163
0.477714
0.474502
0.418588
0.518342
0.608006
0.424372
0.446283
0.483055
0.482664
0.527014
0.530844
0.48825
0.492915
0.543089
0.422154
0.600666
0.518385
0.428216
0.498719
0.583849
0.564684
0.480161
0.498489
0.475522
0.48956
0.48569
0.492693
0.516592
0.514993
0.498102
0.522784
0.503402
0.547886
0.629212
0.496599
0.516565
0.503971
0.48199
0.575424
0.59562
0.532539
0.515017
0.480724
0.460677
0.486585
0.487826
0.382249
0.487041
0.484983
0.527689
0.497032
0.530722
0.545328
0.515799
0.634814
0.454464
0.447284
0.431664
0.488166
0.525813
0.484255
0.484336
0.48981
0.501239
0.461077
0.525596
0.428593
0.403085
0.502233
0.53823
0.484652
0.530906
0.497763
0.53977
0.519441
0.502741
0.493114
0.526922
0.595358
0.450286
0.49997
0.505332
0.514725
0.469875
0.509349
0.500847
0.48716
0.397338
0.435652
0.492367
0.415847
0.457764
0.498044
0.512721
0.48135
0.541442
0.519852
0.536717
0.487729
0.531771
0.500589
0.500548
0.476829
0.532931
0.49395
0.516448
0.516501
0.505201
0.513169
0.485483
0.51858
0.516964
0.516472
0.494708
0.531509
0.439011
0.499248
0.510902
0.453156
0.543491
0.498192
0.521239
0.479835
0.484338
0.508725
0.483285
0.403575
0.521055
0.599751
0.521003
0.477894
0.540711
0.481432
0.522481
0.494799
0.481037
0.52303
0.569363
0.483157
0.529177
0.500869
0.405805
0.432021
0.543944
0.480351
0.483567
0.518095
0.480356
0.492355
0.5135
0.480044
0.497956
0.506524
0.474421
0.537035
0.480271
0.516986
0.566706
0.486254
0.534017
0.495455
0.524624
0.485996
0.523073
0.506801
0.461391
0.511708
0.477319
0.480298
0.538946
0.543328
0.485222
0.480515
0.485336
0.521287
0.482704
0.514223
0.464365
0.503186
0.476248
0.575248
0.561877
0.497721
0.517887
0.479731
0.480716
0.457402
0.478713
0.51956
0.500397
0.48056
0.519958
0.463273
0.541997
0.581674
0.522155
0.507473
0.494643
0.509457
0.506225
0.539031
0.445548
0.477007
0.520776
0.468434
0.480544
0.526445
0.480925
0.465153
0.495726
0.472917
0.470867
0.531848
0.48081
0.454775
0.483368
0.521017
0.47968
0.479809
0.542993
0.472814
0.513475
0.464813
0.538547
0.538258
0.463735
0.526193
0.480194
0.487934
0.496949
0.538274
0.470534
0.537675
0.464813
0.463508
0.520769
0.548005
0.467573
0.524934
0.471242
0.496658
0.459146
0.464128
0.523171
0.542136
0.536894
0.481125
0.479518
0.534659
0.47681
0.466351
0.522752
0.45238
0.471295
0.529904
0.46365
0.478375
0.524833
0.484588
0.516094
0.540705
0.454911
0.540639
0.527368
0.457498
0.483052
0.46617
0.520941
0.479238
0.523188
0.515604
0.468462
0.484506
0.475202
0.488499
0.494611
0.506931
0.509957
0.484
0.487893
0.55928
0.623591
0.510549
0.468857
0.527267
0.522206
0.529352
0.572235
0.528199
0.508563
0.491566
0.526239
0.445169
0.497706
0.486824
0.447076
0.513541
0.553516
0.473357
0.468141
0.528198
0.518632
0.492692
0.452276
0.47542
0.476284
0.498777
0.519393
0.541516
0.482447
0.518766
0.457967
0.484062
0.521465
0.562671
0.513913
0.518856
0.563642
0.512008
0.588998
0.539743
0.495406
0.505705
0.468905
0.441928
0.474347
0.495716
0.528348
0.518831
0.523885
0.51556
0.535967
0.519976
0.467088
0.59754
0.527282
0.518525
0.53807
0.445365
0.498374
0.548826
0.487799
0.516639
0.557469
0.520044
0.433836
0.491052
0.523697
0.50274
0.518862
0.560632
0.510231
0.47984
0.528753
0.474287
0.456487
0.536134
0.493341
0.526321
0.507677
0.469769
0.522577
0.503429
0.537229
0.531803
0.478858
0.478567
0.475811
0.470622
0.520528
0.473114
0.531264
0.47297
0.55569
0.516323
0.534828
0.535533
0.466947
0.513712
0.525269
0.525374
0.502341
0.55476
0.561905
0.554383
0.509081
0.554282
0.499927
0.483493
0.475012
0.497716
0.53312
0.524636
0.543226
0.480291
0.49537
0.503446
0.493423
0.550433
0.51348
0.51107
0.467386
0.529038
0.52429
0.533283
0.522547
0.503585
0.516419
0.479427
0.526411
0.523229
0.529157
0.527174
0.465123
0.507343
0.526346
0.471329
0.474747
0.554269
0.472646
0.502338
0.504927
0.50615
0.507519
0.459478
0.515426
0.441376
0.525331
0.479306
0.506261
0.538328
0.530952
0.479895
0.48402
0.52234
0.570757
0.534973
0.517813
0.493099
0.527685
0.532517
0.546663
0.494281
0.495224
0.531673
0.529958
0.525997
0.502114
0.529067
0.523506
0.584448
0.47108
0.491227
0.525378
0.514924
0.547921
0.475206
0.50493
0.521157
0.506259
0.517601
0.479796
0.478539
0.480275
0.519656
0.501646
0.494534
0.532264
0.524305
0.533926
0.49024
0.5179
0.491206
0.509115
0.47486
0.477647
0.489691
0.499726
0.522213
0.478331
0.505262
0.495021
0.516576
0.516414
0.500965
0.490311
0.494787
0.513835
0.541033
0.473869
0.473719
0.491739
0.481411
0.506882
0.486598
0.489679
0.546887
0.465584
0.524651
0.472528
0.477158
0.485589
0.492455
0.465936
0.528169
0.490736
0.515237
0.521558
0.527317
0.472368
0.513455
0.488438
0.504133
0.566902
0.502093
0.529232
0.51122
0.458501
0.511966
0.548171
0.480198
0.476162
0.50915
0.46117
0.491219
0.519001
0.47384
0.49999
0.478982
0.490085
0.487623
0.494726
0.463795
0.477898
0.545172
0.51072
0.478169
0.477168
0.516888
0.501089
0.504718
0.510395
0.481468
0.486052
0.474164
0.481097
0.476363
0.545462
0.541533
0.508233
0.488164
0.507672
0.476694
0.51672
0.488854
0.473385
0.53062
0.559044
0.501215
0.485411
0.481525
0.469767
0.53692
0.46543
0.515719
0.489322
0.511106
0.519613
0.503549
0.467993
0.534325
0.499759
0.486407
0.497075
0.552394
0.476995
0.479082
0.470587
0.553895
0.503592
0.511435
0.481607
0.484056
0.470692
0.533268
0.474552
0.462846
0.496956
0.475546
0.475089
0.475542
0.515448
0.468067
0.541038
0.502283
0.478435
0.487197
0.513856
0.469894
0.515767
0.464424
0.474706
0.505732
0.53601
0.478643
0.534359
0.506903
0.486405
0.508329
0.488093
0.537156
0.478368
0.507133
0.509716
0.496736
0.465849
0.4765
0.49676
0.514231
0.482093
0.489151
0.504752
0.477497
0.562613
0.479253
0.577822
0.481558
0.555382
0.478859
0.510818
0.47961
0.48407
0.475864
0.472974
0.553603
0.615432
0.489875
0.539977
0.482419
0.467076
0.534484
0.451916
0.488535
0.486008
0.479039
0.479503
0.480152
0.514654
0.486741
0.490948
0.47832
0.46824
0.468124
0.511882
0.481724
0.488226
0.507216
0.501211
0.501335
0.488701
0.508982
0.480035
0.482013
0.508001
0.566333
0.482142
0.478992
0.509064
0.492772
0.457367
0.479533
0.50006
0.468991
0.509497
0.508224
0.493014
0.494502
0.479737
0.480579
0.480139
0.50108
0.488809
0.498297
0.533337
0.480104
0.545393
0.483172
0.524329
0.500785
0.485369
0.51512
0.496404
0.503576
0.503229
0.469057
0.550425
0.481756
0.483374
0.4759
0.480372
0.490314
0.537298
0.485972
0.495816
0.481908
0.502776
0.47996
0.482518
0.509001
0.495027
0.489104
0.479332
0.501634
0.505269
0.487854
0.498036
0.462358
0.501971
0.460505
0.471403
0.480423
0.557532
0.46974
0.464032
0.486448
0.596994
0.48419
0.480513
0.465475
0.498902
0.481629
0.480766
0.503013
0.496382
0.499081
0.480523
0.479197
0.477807
0.476879
0.483595
0.480614
0.547948
0.539893
0.486095
0.479738
0.477344
0.489919
0.480952
0.481057
0.466713
0.481384
0.467795
0.48115
0.502048
0.465161
0.474567
0.479696
0.496529
0.477913
0.479521
0.479302
0.504499
0.532443
0.498071
0.480673
0.48127
0.48052
0.480648
0.480579
0.47858
0.482364
0.482504
0.492
0.481917
0.490954
0.475657
0.482208
0.474936
0.484279
0.482064
0.473281
0.480795
0.493138
0.474171
0.496197
0.472311
0.493907
0.481644
0.480656
0.480682
0.481782
0.494843
0.484509
0.499341
0.484931
0.480879
0.480744
0.487855
0.498811
0.486158
0.468675
0.49544
0.465747
0.496642
0.487465
0.488723
0.468943
0.481519
0.46775
0.456871
0.447777
0.488271
0.466735
0.45892
0.468122
0.465166
0.467168
0.466183
0.489208
0.46067
0.454416
0.451443
0.461351
0.457822
0.455576
0.449575
0.432698
0.445453
0.452873
0.463051
0.491616
0.45972
0.489748
0.496678
0.508008
0.505646
0.512938
0.479066
0.476376
0.481867
0.487257
0.484653
0.488545
0.474003
0.480521
0.477711
0.504704
0.505146
0.503879
0.483306
0.485961
0.474923
0.50315
0.482662
0.502507
0.504267
0.503493
0.483499
0.502805
0.500935
0.479056
0.484078
0.48019
0.478471
0.477733
0.478784
0.478137
0.494723
0.479426
0.485856
0.493374
0.482071
0.4868
0.503902
0.48395
0.551306
0.498845
0.483814
0.484169
0.479747
0.495441
0.481943
0.493946
0.481679
0.579877
0.478327
0.498333
0.48053
0.483147
0.483952
0.48653
0.479002
0.492657
0.487224
0.483281
0.48266
0.48187
0.490351
0.523303
0.50494
0.563218
0.484077
0.483616
0.470937
0.486849
0.489719
0.480447
0.510656
0.502139
0.482295
0.500141
0.548315
0.478466
0.484663
0.482429
0.488835
0.487836
0.485924
0.484817
0.504226
0.485159
0.499988
0.527838
0.498392
0.475438
0.497491
0.57683
0.500732
0.483301
0.484433
0.509026
0.482752
0.483043
0.480987
0.513011
0.484472
0.482465
0.480078
0.484277
0.495892
0.487907
0.587873
0.504861
0.484243
0.48457
0.49999
0.472297
0.476161
0.484384
0.484419
0.495214
0.48182
0.484738
0.501419
0.503902
0.48974
0.470552
0.498388
0.485198
0.499787
0.501411
0.500013
0.522109
0.501537
0.472033
0.480289
0.494029
0.470688
0.499308
0.500128
0.471236
0.499298
0.483767
0.488263
0.480987
0.472035
0.491924
0.499417
0.479795
0.484931
0.480636
0.479941
0.482183
0.499887
0.486459
0.46947
0.484238
0.486141
0.501042
0.484855
0.47668
0.471506
0.481138
0.480376
0.48457
0.482572
0.489606
0.499682
0.481143
0.498839
0.481007
0.499922
0.484917
0.500185
0.489194
0.501626
0.483099
0.481527
0.468731
0.481325
0.476907
0.500313
0.483066
0.479026
0.483404
0.484059
0.484575
0.484644
0.473117
0.499369
0.482824
0.486553
0.499963
0.482518
0.484459
0.48082
0.4718
0.484509
0.485825
0.496044
0.498864
0.46678
0.484406
0.538991
0.484614
0.515822
0.484289
0.474012
0.46543
0.500888
0.480783
0.49987
0.470139
0.483011
0.476039
0.48489
0.485919
0.479095
0.499215
0.483349
0.485505
0.480987
0.479611
0.481421
0.479528
0.492249
0.492323
0.481776
0.499567
0.49483
0.500572
0.483864
0.470011
0.483393
0.476432
0.484765
0.481259
0.475749
0.479626
0.499975
0.482872
0.472588
0.484253
0.500054
0.514862
0.482436
0.482036
0.486583
0.483042
0.480869
0.469873
0.483006
0.473537
0.484046
0.515387
0.497596
0.485978
0.495595
0.473893
0.475753
0.471994
0.484313
0.481247
0.466859
0.499281
0.500357
0.480687
0.500507
0.469365
0.478797
0.501086
0.486129
0.498315
0.483258
0.500869
0.481062
0.477544
0.486766
0.524168
0.500967
0.481791
0.480552
0.484279
0.480842
0.48596
0.504461
0.481909
0.499339
0.510535
0.500448
0.497668
0.464472
0.486182
0.483583
0.484306
0.483976
0.496235
0.497516
0.480216
0.450773
0.474349
0.483558
0.481004
0.479842
0.484205
0.496389
0.490803
0.477959
0.539486
0.490207
0.494496
0.486994
0.48263
0.482578
0.504882
0.498646
0.484238
0.474478
0.48271
0.506673
0.498817
0.484355
0.48207
0.490827
0.500582
0.473942
0.507456
0.5009
0.49941
0.506033
0.491572
0.489129
0.483982
0.483606
0.481052
0.482419
0.512022
0.480457
0.504545
0.481494
0.490384
0.483169
0.478902
0.491402
0.482449
0.530017
0.48967
0.505495
0.492485
0.483141
0.49271
0.490379
0.501928
0.498639
0.476301
0.481307
0.494755
0.487429
0.504224
0.485704
0.507626
0.482169
0.480825
0.477102
0.484504
0.485821
0.481772
0.481182
0.486713
0.494274
0.479948
0.481238
0.480814
0.49707
0.504287
0.497553
0.488806
0.481926
0.481991
0.474389
0.461237
0.495464
0.497028
0.472595
0.487584
0.490314
0.478653
0.484558
0.473092
0.475305
0.484816
0.479682
0.477155
0.465768
0.511952
0.47837
0.481405
0.481549
0.504666
0.473591
0.465703
0.478588
0.494144
0.466934
0.493567
0.482515
0.482118
0.481761
0.498153
0.482871
0.479355
0.485481
0.471954
0.498319
0.47981
0.491102
0.488389
0.482817
0.482739
0.48189
0.481839
0.483778
0.500418
0.505566
0.482526
0.52106
0.481177
0.479802
0.473112
0.482213
0.48364
0.480777
0.520314
0.495776
0.483443
0.507619
0.50689
0.493836
0.496969
0.481678
0.478687
0.481508
0.620989
0.489924
0.505965
0.477889
0.516419
0.475275
0.495068
0.464462
0.505648
0.481318
0.492081
0.510437
0.478574
0.484985
0.456717
0.491761
0.481849
0.480749
0.480496
0.483763
0.503877
0.485629
0.482842
0.467851
0.517862
0.506147
0.484939
0.489215
0.479573
0.482758
0.507039
0.467973
0.547766
0.467761
0.502228
0.470293
0.523219
0.487212
0.493364
0.498647
0.489856
0.501783
0.509426
0.490322
0.493634
0.491551
0.485203
0.529135
0.485044
0.476257
0.504658
0.488638
0.485084
0.481804
0.491873
0.485379
0.486701
0.504528
0.490161
0.527325
0.469459
0.472677
0.491212
0.481586
0.470604
0.481991
0.50568
0.5332
0.502945
0.506116
0.469563
0.489211
0.488667
0.48875
0.511462
0.505706
0.514481
0.505227
0.508724
0.483912
0.468712
0.518072
0.489676
0.487711
0.47055
0.499421
0.473808
0.536689
0.49523
0.482634
0.481466
0.536141
0.482521
0.492711
0.488091
0.482405
0.489246
0.496541
0.48305
0.549395
0.61681
0.481862
0.481973
0.50926
0.534966
0.552934
0.506336
0.51063
0.487724
0.533226
0.507889
0.486478
0.482841
0.513727
0.483168
0.493847
0.473759
0.497394
0.493342
0.491721
0.512675
0.524509
0.485086
0.493177
0.494449
0.485674
0.499864
0.532238
0.508736
0.524778
0.5424
0.483369
0.472627
0.513213
0.527009
0.518881
0.495089
0.480527
0.496979
0.50266
0.532155
0.521665
0.516215
0.482406
0.505841
0.491141
0.535386
0.49119
0.474729
0.508625
0.487015
0.512755
0.474319
0.483035
0.468612
0.489882
0.509221
0.494144
0.476525
0.494955
0.496974
0.488122
0.531048
0.509108
0.483174
0.485648
0.48253
0.482451
0.557293
0.49692
0.507033
0.507601
0.571167
0.478001
0.483891
0.48386
0.498762
0.493786
0.496466
0.470972
0.491961
0.52649
0.525812
0.51439
0.515109
0.528549
0.511858
0.483706
0.496999
0.491072
0.492333
0.485256
0.434964
0.418315
0.479176
0.498785
0.41266
0.485127
0.48962
0.468764
0.517907
0.491229
0.48551
0.518312
0.503836
0.501744
0.478648
0.512462
0.544616
0.491643
0.540588
0.543973
0.530405
0.489617
0.499227
0.508579
0.493297
0.49279
0.647234
0.484591
0.492124
0.514523
0.517655
0.501371
0.525858
0.520328
0.482547
0.496428
0.522139
0.485378
0.598951
0.504393
0.442964
0.523087
0.50131
0.499594
0.523073
0.493862
0.482944
0.468853
0.50155
0.641685
0.492493
0.513138
0.484517
0.507571
0.537132
0.505024
0.502112
0.511132
0.482895
0.483316
0.485666
0.510982
0.547788
0.510343
0.51231
0.521485
0.530528
0.652188
0.506858
0.482852
0.481796
0.621536
0.494141
0.501716
0.494939
0.502841
0.485749
0.490719
0.528153
0.49604
0.48241
0.539874
0.581182
0.502885
0.491604
0.540951
0.532824
0.538063
0.536567
0.533222
0.497544
0.539696
0.505651
0.636613
0.484745
0.507723
0.535791
0.536158
0.487232
0.554948
0.560893
0.567631
0.493596
0.572856
0.575109
0.546625
0.478091
0.511627
0.518327
0.5113
0.538961
0.481347
0.583128
0.511996
0.608732
0.529255
0.531398
0.591284
0.507297
0.488447
0.532469
0.56598
0.53577
0.510072
0.518013
0.531979
0.533748
0.506823
0.537916
0.541434
0.500286
0.531104
0.532436
0.537666
0.545486
0.546199
0.555275
0.498247
0.522515
0.484056
0.509907
0.487537
0.544949
0.5351
0.518503
0.599083
0.483712
0.582966
0.550105
0.483862
0.535056
0.52106
0.479803
0.50063
0.489402
0.549823
0.522307
0.482817
0.487304
0.499311
0.531199
0.521833
0.522443
0.566464
0.606692
0.507929
0.511579
0.553647
0.493104
0.5303
0.499243
0.483266
0.519302
0.490054
0.536692
0.529603
0.482312
0.532602
0.538064
0.537999
0.483723
0.556672
0.56254
0.532815
0.569062
0.538908
0.528527
0.510438
0.514891
0.576109
0.542752
0.53292
0.534688
0.539528
0.543095
0.543765
0.536116
0.520475
0.534332
0.490724
0.515833
0.521844
0.473614
0.547155
0.492384
0.590472
0.583401
0.551704
0.514487
0.53362
0.521829
0.529305
0.483623
0.472328
0.526545
0.580979
0.469258
0.525513
0.536134
0.50361
0.542707
0.491133
0.517075
0.507355
0.524371
0.52314
0.520939
0.52567
0.474738
0.477224
0.520486
0.478601