# vtk DataFile Version 3.0
2D Bump
ASCII
DATASET UNSTRUCTURED_GRID
POINTS 1484 double
-1.5 0 0.0
-0.5 0 0.0
0.5 0 0.0
1.5 0 0.0
1.5 1 0.0
-1.5 1 0.0
-1.45 0 0.0
-1.4 0 0.0
-1.35 0 0.0
-1.3 0 0.0
-1.25 0 0.0
-1.2 0 0.0
-1.15 0 0.0
-1.1 0 0.0
-1.05 0 0.0
-1 0 0.0
-0.95 0 0.0
-0.9 0 0.0
-0.85 0 0.0
-0.8 0 0.0
-0.75 0 0.0
-0.7 0 0.0
-0.65 0 0.0
-0.6 0 0.0
-0.55 0 0.0
-0.452428 0.0103335 0.0
-0.405137 0.0218893 0.0
-0.358028 0.0341677 0.0
-0.310983 0.046692 0.0
-0.263879 0.0589937 0.0
-0.2166 0.0705971 0.0
-0.169044 0.0810038 0.0
-0.121144 0.0896817 0.0
-0.072886 0.0960599 0.0
-0.0243359 0.0995377 0.0
0.0243359 0.0995377 0.0
0.072886 0.0960599 0.0
0.121144 0.0896817 0.0
0.169044 0.0810038 0.0
0.2166 0.0705971 0.0
0.263879 0.0589937 0.0
0.310983 0.046692 0.0
0.358028 0.0341677 0.0
0.405137 0.0218893 0.0
0.452428 0.0103335 0.0
0.55 0 0.0
0.6 0 0.0
0.65 0 0.0
0.7 0 0.0
0.75 0 0.0
0.8 0 0.0
0.85 0 0.0
0.9 0 0.0
0.95 0 0.0
1 0 0.0
1.05 0 0.0
1.1 0 0.0
1.15 0 0.0
1.2 0 0.0
1.25 0 0.0
1.3 0 0.0
1.35 0 0.0
1.4 0 0.0
1.45 0 0.0
1.5 0.05 0.0
1.5 0.1 0.0
1.5 0.15 0.0
1.5 0.2 0.0
1.5 0.25 0.0
1.5 0.3 0.0
1.5 0.35 0.0
1.5 0.4 0.0
1.5 0.45 0.0
1.5 0.5 0.0
1.5 0.55 0.0
1.5 0.6 0.0
1.5 0.65 0.0
1.5 0.7 0.0
1.5 0.75 0.0
1.5 0.8 0.0
1.5 0.85 0.0
1.5 0.9 0.0
1.5 0.95 0.0
1.45 1 0.0
1.4 1 0.0
1.35 1 0.0
1.3 1 0.0
1.25 1 0.0
1.2 1 0.0
1.15 1 0.0
1.1 1 0.0
1.05 1 0.0
1 1 0.0
0.95 1 0.0
0.9 1 0.0
0.85 1 0.0
0.8 1 0.0
0.75 1 0.0
0.7 1 0.0
0.65 1 0.0
0.6 1 0.0
0.55 1 0.0
0.5 1 0.0
0.45 1 0.0
0.4 1 0.0
0.35 1 0.0
0.3 1 0.0
0.25 1 0.0
0.2 1 0.0
0.15 1 0.0
0.1 1 0.0
0.05 1 0.0
5.50449e-12 1 0.0
-0.05 1 0.0
-0.1 1 0.0
-0.15 1 0.0
-0.2 1 0.0
-0.25 1 0.0
-0.3 1 0.0
-0.35 1 0.0
-0.4 1 0.0
-0.45 1 0.0
-0.5 1 0.0
-0.55 1 0.0
-0.6 1 0.0
-0.65 1 0.0
-0.7 1 0.0
-0.75 1 0.0
-0.8 1 0.0
-0.85 1 0.0
-0.9 1 0.0
-0.95 1 0.0
-1 1 0.0
-1.05 1 0.0
-1.1 1 0.0
-1.15 1 0.0
-1.2 1 0.0
-1.25 1 0.0
-1.3 1 0.0
-1.35 1 0.0
-1.4 1 0.0
-1.45 1 0.0
-1.5 0.95 0.0
-1.5 0.9 0.0
-1.5 0.85 0.0
-1.5 0.8 0.0
-1.5 0.75 0.0
-1.5 0.7 0.0
-1.5 0.65 0.0
-1.5 0.6 0.0
-1.5 0.55 0.0
-1.5 0.5 0.0
-1.5 0.45 0.0
-1.5 0.4 0.0
-1.5 0.35 0.0
-1.5 0.3 0.0
-1.5 0.25 0.0
-1.5 0.2 0.0
-1.5 0.15 0.0
-1.5 0.1 0.0
-1.5 0.05 0.0
0.43358 0.0571806 0.0
-0.435491 0.05777 0.0
0.975 0.956699 0.0
0.727626 0.956836 0.0
-0.972336 0.048279 0.0
-0.674975 0.956646 0.0
0.875 0.0426383 0.0
0.248812 0.107954 0.0
-0.250374 0.1024 0.0
-0.925002 0.956699 0.0
-0.724923 0.0433698 0.0
0.524963 0.956713 0.0
0.675076 0.0433923 0.0
-0.475014 0.956719 0.0
1.45755 0.474061 0.0
0.0498228 0.139598 0.0
-0.174952 0.956692 0.0
0.324988 0.959517 0.0
-1.44999 0.522756 0.0
0.123191 0.952841 0.0
1.07357 0.0391147 0.0
-0.105234 0.141041 0.0
-1.11528 0.961049 0.0
-1.45835 0.325 0.0
1.45528 0.674665 0.0
1.17497 0.960897 0.0
-1.175 0.0412026 0.0
1.4556 0.280039 0.0
-0.0266527 0.956256 0.0
-0.324958 0.956654 0.0
-1.4567 0.675 0.0
1.22203 0.0405186 0.0
-1.27431 0.951901 0.0
-0.574836 0.0431581 0.0
-1.4586 0.175 0.0
1.45762 0.822828 0.0
-1.45658 0.823445 0.0
0.152609 0.126824 0.0
1.32077 0.962453 0.0
-1.32546 0.0444273 0.0
0.2283 0.955855 0.0
0.424983 0.956723 0.0
-0.574986 0.956701 0.0
-0.872365 0.0443575 0.0
0.574678 0.0432028 0.0
-1.02667 0.956584 0.0
-1.457 0.425 0.0
1.4577 0.576729 0.0
1.3216 0.0399578 0.0
-0.825017 0.957055 0.0
0.975 0.042127 0.0
0.775008 0.0450124 0.0
0.875 0.956699 0.0
0.62499 0.956712 0.0
1.075 0.957964 0.0
1.45969 0.173053 0.0
1.45813 0.375346 0.0
-1.07723 0.0411171 0.0
-0.343637 0.0802003 0.0
0.346736 0.0813833 0.0
-1.37404 0.953033 0.0
-1.45782 0.0769338 0.0
1.46174 0.926759 0.0
1.42722 0.0422911 0.0
-1.45469 0.919235 0.0
0.000659878 0.141184 0.0
0.0270486 0.182962 0.0
-0.0221012 0.184686 0.0
0.00520114 0.2265 0.0
-0.045088 0.228237 0.0
-0.0170758 0.269915 0.0
-0.0673507 0.271831 0.0
-0.039163 0.313616 0.0
-0.0880594 0.316356 0.0
0.0100808 0.310636 0.0
-0.0120063 0.354685 0.0
0.0371197 0.351662 0.0
0.0148678 0.395862 0.0
0.0639557 0.393017 0.0
0.0417813 0.436954 0.0
0.0909302 0.434147 0.0
-0.0071687 0.439645 0.0
0.0687184 0.478104 0.0
0.117885 0.475313 0.0
0.0956782 0.519303 0.0
0.14486 0.516515 0.0
0.167059 0.472512 0.0
0.19405 0.513653 0.0
0.216227 0.469701 0.0
0.243244 0.51084 0.0
0.265406 0.466846 0.0
0.29245 0.50799 0.0
0.314596 0.46394 0.0
0.341689 0.505174 0.0
0.363874 0.461155 0.0
0.390987 0.502332 0.0
0.413217 0.457812 0.0
0.440358 0.499449 0.0
0.462633 0.454855 0.0
0.489803 0.496536 0.0
0.512124 0.452472 0.0
0.539328 0.493791 0.0
0.561666 0.449575 0.0
0.588928 0.491256 0.0
0.611281 0.446751 0.0
0.638579 0.488464 0.0
0.660951 0.444024 0.0
0.688266 0.485659 0.0
0.71066 0.441187 0.0
0.737995 0.482834 0.0
0.760407 0.438325 0.0
0.787752 0.479998 0.0
0.810179 0.435465 0.0
0.837519 0.476785 0.0
0.859974 0.432543 0.0
0.887329 0.473873 0.0
0.90979 0.429662 0.0
0.937175 0.47138 0.0
0.959621 0.42686 0.0
0.987012 0.468601 0.0
1.00946 0.42402 0.0
0.915924 0.515432 0.0
1.03685 0.465768 0.0
0.765926 0.524085 0.0
1.05931 0.421171 0.0
0.566753 0.534908 0.0
0.369316 0.546162 0.0
0.172048 0.557573 0.0
1.08671 0.462916 0.0
1.06425 0.50752 0.0
1.10916 0.418317 0.0
0.534332 0.407633 0.0
0.733043 0.396671 0.0
1.11411 0.504669 0.0
1.09165 0.54928 0.0
0.932231 0.38516 0.0
0.386043 0.416408 0.0
1.14151 0.546428 0.0
1.11905 0.591045 0.0
1.08176 0.376559 0.0
1.13163 0.373706 0.0
0.238343 0.425789 0.0
1.16893 0.58819 0.0
1.14646 0.632811 0.0
1.09658 0.635663 0.0
1.10421 0.331945 0.0
1.15409 0.329084 0.0
1.1815 0.370853 0.0
1.12426 0.67717 0.0
1.07507 0.679889 0.0
1.17392 0.674541 0.0
1.20397 0.326224 0.0
0.0866267 0.347879 0.0
1.19139 0.543567 0.0
1.17655 0.284454 0.0
1.22643 0.281593 0.0
1.23138 0.367996 0.0
1.15205 0.71906 0.0
1.2014 0.716331 0.0
-0.116888 0.274937 0.0
-0.137074 0.319169 0.0
-0.163437 0.278312 0.0
-0.185621 0.322021 0.0
-0.158789 0.363052 0.0
-0.207691 0.365799 0.0
-0.180819 0.406896 0.0
-0.229861 0.409637 0.0
-0.202975 0.45077 0.0
-0.25208 0.453496 0.0
-0.278984 0.412318 0.0
-0.301235 0.456023 0.0
-0.328161 0.414976 0.0
-0.350406 0.458957 0.0
-0.377378 0.417123 0.0
-0.399697 0.461379 0.0
-0.426635 0.419168 0.0
-0.449042 0.463909 0.0
-0.476042 0.422473 0.0
-0.498458 0.466995 0.0
-0.525507 0.425465 0.0
-0.547984 0.469564 0.0
-0.574945 0.427894 0.0
-0.597557 0.472102 0.0
-0.62472 0.431114 0.0
-0.647221 0.474903 0.0
-0.674451 0.433443 0.0
-0.696924 0.477568 0.0
-0.724191 0.43609 0.0
-0.746659 0.480291 0.0
-0.773894 0.439071 0.0
-0.796414 0.483057 0.0
-0.823647 0.441832 0.0
-0.846172 0.486156 0.0
-0.873439 0.444624 0.0
-0.896001 0.488623 0.0
-0.92326 0.44732 0.0
-0.945834 0.491303 0.0
-0.973095 0.450038 0.0
-0.995674 0.494034 0.0
-0.274859 0.497101 0.0
-0.423267 0.505031 0.0
-1.02294 0.452767 0.0
-1.04549 0.497311 0.0
-0.571951 0.512939 0.0
-0.770977 0.523709 0.0
-0.920406 0.531934 0.0
-1.07279 0.455592 0.0
-1.09534 0.500158 0.0
-1.06804 0.541969 0.0
-1.1179 0.544737 0.0
-1.09059 0.586551 0.0
-1.05019 0.411037 0.0
-1.10009 0.413815 0.0
-0.80102 0.397347 0.0
-0.651708 0.388637 0.0
-0.503047 0.38106 0.0
-1.14047 0.589299 0.0
-1.11315 0.631122 0.0
-1.07748 0.369235 0.0
-1.12739 0.372004 0.0
-1.16303 0.633868 0.0
-1.16777 0.547492 0.0
-0.355081 0.373691 0.0
-1.10482 0.327434 0.0
-1.05492 0.324689 0.0
-1.15471 0.330177 0.0
-1.13571 0.675697 0.0
-1.08625 0.673227 0.0
-1.1856 0.678444 0.0
-1.17728 0.374756 0.0
-1.2046 0.332917 0.0
-1.13214 0.285602 0.0
-1.22718 0.377498 0.0
-0.212357 0.281028 0.0
-1.10846 0.717575 0.0
-1.05901 0.715112 0.0
0.633405 0.40203 0.0
1.22377 0.671726 0.0
1.2512 0.713506 0.0
-1.21292 0.636609 0.0
-1.23548 0.681196 0.0
-1.26279 0.639398 0.0
-1.20817 0.723029 0.0
-1.25805 0.725783 0.0
-0.900702 0.402912 0.0
-0.67147 0.518262 0.0
0.832594 0.390902 0.0
0.665858 0.530131 0.0
0.0464898 0.522075 0.0
0.073481 0.563331 0.0
0.0242177 0.566099 0.0
0.051259 0.607409 0.0
0.00192249 0.610192 0.0
0.0290089 0.651553 0.0
-0.0203853 0.654333 0.0
0.00673268 0.695748 0.0
0.0561789 0.692942 0.0
-0.0427127 0.698514 0.0
-0.0697149 0.657144 0.0
-0.0921547 0.701294 0.0
0.0338754 0.737205 0.0
0.0834155 0.734383 0.0
-0.118934 0.6599 0.0
-0.141476 0.704125 0.0
-0.114519 0.745536 0.0
-0.164009 0.748318 0.0
-0.191024 0.706864 0.0
-0.213551 0.751073 0.0
-0.240705 0.709523 0.0
-0.263228 0.75214 0.0
-0.29032 0.711959 0.0
-0.313316 0.754316 0.0
-0.339988 0.714552 0.0
-0.362929 0.758619 0.0
-0.38959 0.717519 0.0
-0.410589 0.760474 0.0
-0.438927 0.720124 0.0
-0.45927 0.771797 0.0
-0.488436 0.724252 0.0
-0.511349 0.76755 0.0
-0.538524 0.725993 0.0
-0.561079 0.77033 0.0
-0.588334 0.728563 0.0
-0.610852 0.773062 0.0
-0.638125 0.731302 0.0
-0.660646 0.775816 0.0
-0.687932 0.734038 0.0
-0.710462 0.778569 0.0
-0.73775 0.736795 0.0
0.468126 0.540302 0.0
0.270699 0.551889 0.0
-0.0248482 0.568756 0.0
-1.2545 0.335656 0.0
-1.23192 0.291073 0.0
-0.760293 0.781325 0.0
-0.787595 0.739529 0.0
-0.810144 0.784077 0.0
-0.837447 0.742273 0.0
1.22873 0.758144 0.0
-1.08116 0.759426 0.0
-1.03127 0.756681 0.0
-1.01062 0.710992 0.0
1.27366 0.668873 0.0
-0.860003 0.786828 0.0
-1.28183 0.293812 0.0
-1.25925 0.249222 0.0
1.19901 0.239819 0.0
1.2489 0.236956 0.0
1.14913 0.24268 0.0
-1.23074 0.76762 0.0
0.0610553 0.778711 0.0
0.110615 0.77589 0.0
0.132961 0.731553 0.0
0.160183 0.77307 0.0
0.182536 0.728721 0.0
0.209755 0.770248 0.0
0.232098 0.725904 0.0
0.259326 0.767418 0.0
0.281674 0.723071 0.0
0.308912 0.764595 0.0
0.33125 0.720239 0.0
0.358503 0.761763 0.0
0.38085 0.717396 0.0
0.408118 0.758939 0.0
0.430463 0.714512 0.0
0.457758 0.756109 0.0
0.480113 0.711653 0.0
0.507425 0.75328 0.0
0.529799 0.708772 0.0
0.557124 0.750445 0.0
0.579511 0.70591 0.0
[...]
CELL_DATA 2805
SCALARS Mach double 1
LOOKUP_TABLE default
0.463425
0.466846
0.50127
0.518396
0.543714
0.490535
0.51728
0.497675
0.466316
0.513305
0.449615
0.449992
0.541879
0.496128
0.497359
0.489735
0.497419
0.497071
0.455444
0.512969
0.541413
0.506529
0.491421
0.500038
0.471144
0.516014
0.488586
0.499694
0.508178
0.5077
0.514811
0.502814
0.501215
0.541078
0.492598
0.580325
0.513972
0.487047
0.502103
0.506922
0.675004
0.500334
0.502553
0.499592
0.513764
0.509065
0.478559
0.501911
0.47263
0.500313
0.511
0.512637
0.500067
0.543319
0.509643
0.462552
0.502351
0.543083
0.588013
0.498135
0.509443
0.508674
0.655954
0.595027
0.483058
0.510557
0.632699
0.511317
0.499534
0.504521
0.513794
0.510187
0.492747
0.501322
0.648053
0.60134
0.543218
0.484852
0.622554
0.503092
0.502144
0.497083
0.495639
0.495368
0.663958
0.487985
0.52552
0.482647
0.503118
0.540132
0.500295
0.541968
0.493107
0.491765
0.52684
0.501447
0.541052
0.487478
0.500462
0.543635
0.539723
0.501707
0.628927
0.47851
0.477538
0.487585
0.539086
0.470307
0.483017
0.503101
0.499367
0.605019
0.620972
0.484819
0.497629
0.496816
0.624205
0.512402
0.461624
0.496515
0.500759
0.48123
0.496321
0.501559
0.49712
0.493335
0.481082
0.537312
0.514401
0.496672
0.500485
0.498312
0.49962
0.6455
0.501398
0.500419
0.531026
0.485487
0.499529
0.502299
0.473471
0.501117
0.507882
0.492106
0.54228
0.67801
0.492904
0.51225
0.516892
0.478303
0.696769
0.497767
0.499855
0.507267
0.500544
0.501653
0.501312
0.488453
0.517991
0.530901
0.537184
0.488312
0.538865
0.567774
0.499795
0.500033
0.501589
0.501826
0.514811
0.493954
0.533897
0.596026
0.498097
0.491954
0.489672
0.539549
0.499991
0.572622
0.550083
0.668604
0.501009
0.507281
0.604152
0.518889
0.500788
0.47092
0.499698
0.58944
0.492802
0.466013
0.502724
0.509838
0.53914
0.477333
0.495174
0.580345
0.535204
0.501793
0.480887
0.621834
0.497584
0.571417
0.478713
0.538815
0.516629
0.476656
0.472847
0.544262
0.525886
0.509958
0.555568
0.520956
0.48584
0.502575
0.522894
0.502165
0.51314
0.512516
0.501832
0.521054
0.503848
0.51846
0.503588
0.594809
0.513482
0.54331
0.501572
0.511462
0.5437
0.630999
0.537232
0.472328
0.503003
0.557131
0.504925
0.529201
0.501112
0.487514
0.572881
0.559056
0.502258
0.698065
0.500413
0.481516
0.532399
0.505392
0.592588
0.544244
0.514479
0.544264
0.585698
0.506674
0.50791
0.545301
0.504776
0.545652
0.506213
0.502556
0.506024
0.501866
0.545365
0.510325
0.504743
0.500227
0.546816
0.514247
0.544122
0.56927
0.546386
0.508463
0.525106
0.547673
0.512053
0.526158
0.51183
0.608792
0.602867
0.525842
0.727121
0.656752
0.729814
0.544406
0.532715
0.522873
0.519136
0.504596
0.528197
0.500656
0.494975
0.612908
0.496651
0.52941
0.501732
0.507575
0.634167
0.517594
0.696808
0.540113
0.502316
0.532449
0.517079
0.589324
0.507854
0.545475
0.705801
0.582236
0.514546
0.498036
0.5
0.529235
0.49217
0.49762
0.494773
0.544734
0.503066
0.502298
0.497212
0.660874
0.499637
0.49984
0.406875
0.519488
0.635658
0.46413
0.467923
0.504372
0.500457
0.543991
0.544604
0.524222
0.500783
0.55139
0.446993
0.644312
0.556885
0.454772
0.500516
0.637583
0.617036
0.499864
0.505381
0.492046
0.498937
0.505026
0.500766
0.535535
0.533888
0.517571
0.523575
0.526794
0.569791
0.684299
0.503168
0.535471
0.50764
0.499361
0.6253
0.63431
0.533925
0.534002
0.498433
0.472674
0.503786
0.507956
0.393516
0.504351
0.502037
0.547868
0.516335
0.544362
0.553319
0.538771
0.687767
0.464393
0.477437
0.430259
0.513779
0.52837
0.501206
0.501288
0.499251
0.502624
0.47378
0.542853
0.465418
0.443753
0.503137
0.542831
0.501642
0.532961
0.501737
0.543911
0.520753
0.503528
0.511162
0.546581
0.618679
0.458536
0.502721
0.508662
0.515291
0.497076
0.510163
0.503251
0.497881
0.427819
0.441976
0.501201
0.442878
0.468598
0.524245
0.535536
0.495162
0.55273
0.521341
0.537984
0.498371
0.539037
0.521566
0.505132
0.498884
0.534108
0.512054
0.535116
0.53521
0.506582
0.513589
0.497367
0.519244
0.544594
0.517082
0.521836
0.53319
0.441783
0.518405
0.511611
0.468439
0.554693
0.518715
0.522105
0.496595
0.497206
0.509322
0.502931
0.440681
0.522963
0.64638
0.522767
0.493857
0.542639
0.495481
0.523138
0.513031
0.497677
0.524137
0.583237
0.502537
0.563316
0.520427
0.431371
0.44438
0.54625
0.497216
0.497264
0.550366
0.496877
0.510307
0.532444
0.496721
0.517118
0.507669
0.492163
0.538914
0.497293
0.517497
0.577881
0.497928
0.536186
0.514224
0.526165
0.503434
0.524275
0.526661
0.487878
0.512135
0.493998
0.496932
0.550822
0.557555
0.497778
0.49729
0.502581
0.542712
0.497681
0.514627
0.486536
0.504346
0.510795
0.589235
0.573286
0.516656
0.536374
0.496159
0.497442
0.482921
0.495129
0.55102
0.519663
0.497182
0.52073
0.486212
0.544978
0.6008
0.524374
0.508184
0.51332
0.50999
0.526405
0.549112
0.451927
0.492971
0.538773
0.487212
0.497184
0.543129
0.497629
0.49054
0.514015
0.498536
0.492152
0.538918
0.497437
0.482581
0.500227
0.541914
0.496211
0.497014
0.552111
0.493274
0.532368
0.485927
0.549323
0.547279
0.478991
0.542837
0.496757
0.505351
0.515985
0.544694
0.494991
0.543398
0.488539
0.486493
0.522376
0.55139
0.489595
0.541953
0.491754
0.514957
0.484711
0.480506
0.543789
0.547268
0.543518
0.497823
0.497044
0.546639
0.501155
0.481317
0.542877
0.480023
0.491978
0.532376
0.477077
0.496919
0.541759
0.496917
0.538274
0.550768
0.483977
0.552604
0.531317
0.484964
0.497443
0.481761
0.521637
0.495676
0.537053
0.528437
0.483825
0.497807
0.496348
0.508958
0.513148
0.537634
0.510343
0.497937
0.498354
0.568486
0.667377
0.529569
0.48392
0.531437
0.524357
0.532052
0.588084
0.532856
0.509451
0.509677
0.528091
0.474738
0.51615
0.498636
0.47819
0.51414
0.566378
0.4915
0.488531
0.532774
0.5394
0.511039
0.479924
0.498706
0.492479
0.517362
0.53765
0.548619
0.500236
0.520095
0.4863
0.49636
0.530271
0.580062
0.514594
0.541
0.603854
0.531029
0.606535
0.547191
0.51401
0.516288
0.493266
0.474947
0.49444
0.513955
0.530365
0.540404
0.541427
0.544461
0.540821
0.521663
0.490155
0.620118
0.543357
0.538867
0.546695
0.478566
0.528638
0.583097
0.498487
0.544482
0.562476
0.521664
0.472628
0.509113
0.541173
0.522531
0.520306
0.596762
0.510579
0.496301
0.530411
0.496363
0.485992
0.539932
0.511762
0.530028
0.52667
0.488107
0.549718
0.522994
0.54455
0.534788
0.495252
0.495549
0.493301
0.486095
0.540617
0.492201
0.537519
0.494223
0.562014
0.537675
0.539933
0.541298
0.492191
0.514469
0.542484
0.528483
0.521125
0.56419
0.568897
0.587676
0.52811
0.559771
0.51856
0.500397
0.491097
0.516188
0.536651
0.544338
0.559994
0.496027
0.51435
0.522392
0.511733
0.554443
0.535337
0.542236
0.491108
0.561014
0.527177
0.537664
0.540485
0.522408
0.536667
0.495887
0.529906
0.525735
0.544044
0.543162
0.489631
0.526394
0.529972
0.495931
0.493387
0.591457
0.492706
0.521077
0.523837
0.525115
0.52653
0.488039
0.523807
0.456239
0.528595
0.495786
0.525222
0.546632
0.538189
0.496408
0.50094
0.550598
0.582269
0.539189
0.519102
0.511656
0.529952
0.542599
0.579747
0.51337
0.500592
0.539017
0.544207
0.542466
0.52092
0.534095
0.540826
0.599339
0.486412
0.509423
0.528545
0.533748
0.575098
0.491176
0.523839
0.522993
0.525235
0.518741
0.496327
0.495229
0.49683
0.520414
0.506648
0.513394
0.536058
0.526979
0.54512
0.50846
0.519118
0.5092
0.511661
0.495747
0.493924
0.50759
0.518182
0.539896
0.494818
0.524985
0.500561
0.517613
0.537297
0.519652
0.508111
0.512915
0.514548
0.550369
0.489714
0.48975
0.509781
0.498081
0.507655
0.503907
0.507492
0.554389
0.487962
0.525413
0.488192
0.493535
0.510189
0.510931
0.490913
0.543607
0.508883
0.516118
0.522563
0.531353
0.488124
0.532494
0.506086
0.524953
0.577155
0.521573
0.530151
0.51161
0.488117
0.53094
0.564683
0.49677
0.492326
0.53455
0.489773
0.512526
0.520376
0.495717
0.519767
0.4956
0.507933
0.505251
0.520048
0.478137
0.494178
0.57122
0.511118
0.494479
0.493414
0.517915
0.519841
0.523724
0.529483
0.498176
0.498776
0.490022
0.495933
0.492457
0.569428
0.543356
0.509389
0.505804
0.526651
0.492844
0.517829
0.506483
0.494998
0.533841
0.567285
0.504258
0.499038
0.495397
0.494256
0.546203
0.479029
0.51672
0.50719
0.513309
0.538109
0.505259
0.493373
0.548995
0.504637
0.503627
0.501355
0.559248
0.493142
0.49552
0.49515
0.570035
0.522471
0.511799
0.498321
0.500983
0.496136
0.544486
0.495101
0.491381
0.501334
0.491572
0.497436
0.496892
0.51632
0.492189
0.557488
0.504584
0.494808
0.498992
0.535185
0.495346
0.516238
0.492821
0.496934
0.506667
0.543638
0.495007
0.552244
0.507337
0.49915
0.508724
0.505455
0.548094
0.495988
0.508204
0.509915
0.502606
0.494067
0.492606
0.515589
0.534943
0.498864
0.506701
0.506189
0.493761
0.57112
0.495684
0.595029
0.49824
0.564962
0.495334
0.511289
0.496102
0.500982
0.497374
0.488565
0.578641
0.658897
0.507649
0.558413
0.499188
0.495114
0.540617
0.485433
0.506143
0.503144
0.495214
0.497424
0.496693
0.515504
0.503984
0.508743
0.494672
0.485256
0.496007
0.512529
0.498444
0.505572
0.507548
0.511513
0.50237
0.506176
0.509366
0.496575
0.498747
0.508318
0.598032
0.498915
0.495425
0.528087
0.511027
0.489787
0.496022
0.50233
0.494425
0.509817
0.508423
0.500289
0.500406
0.496231
0.497167
0.496668
0.51975
0.499675
0.50173
0.547821
0.496675
0.56164
0.50005
0.527147
0.502747
0.502518
0.516738
0.500828
0.50425
0.504979
0.496771
0.566326
0.49846
0.498327
0.491897
0.496945
0.508059
0.553868
0.499867
0.500284
0.49864
0.5033
0.496477
0.499317
0.528052
0.50022
0.506711
0.495727
0.502461
0.506255
0.505141
0.501143
0.491696
0.531635
0.490023
0.496818
0.496965
0.58368
0.484843
0.493154
0.503764
0.624549
0.501116
0.497071
0.494378
0.50101
0.498319
0.497348
0.503793
0.500237
0.502115
0.497126
0.495636
0.494082
0.493009
0.500476
0.497199
0.552475
0.548076
0.499254
0.498946
0.493553
0.499873
0.497577
0.497681
0.495392
0.498059
0.49625
0.497792
0.502765
0.478487
0.4904
0.496174
0.500803
0.494316
0.495962
0.495709
0.505305
0.537183
0.501068
0.49726
0.497931
0.497062
0.49722
0.497131
0.494943
0.499145
0.499291
0.500005
0.498649
0.499995
0.491277
0.498963
0.49047
0.50125
0.498813
0.488499
0.497383
0.500053
0.489539
0.500145
0.487286
0.500068
0.498338
0.497215
0.497256
0.498499
0.500143
0.501507
0.500191
0.501985
0.497486
0.497326
0.505207
0.50018
0.503319
0.490222
0.500096
0.486435
0.500093
0.504763
0.50623
0.490067
0.498194
0.490079
0.481333
0.473634
0.505715
0.487326
0.482659
0.4898
0.485943
0.487774
0.48669
0.506785
0.483575
0.479302
0.476757
0.482763
0.480205
0.478232
0.473061
0.456717
0.469418
0.475949
0.475606
0.509522
0.481648
0.499974
0.515088
0.508614
0.50614
0.513551
0.499843
0.499929
0.499905
0.499966
0.499939
0.499955
0.500229
0.499807
0.499755
0.505152
0.505638
0.504297
0.499862
0.499923
0.499962
0.503557
0.499452
0.502912
0.504698
0.50392
0.500368
0.503231
0.501424
0.495384
0.501016
0.496708
0.49469
0.493804
0.495065
0.494296
0.500435
0.496022
0.502999
0.500431
0.498814
0.504051
0.504579
0.500849
0.582997
0.500911
0.500732
0.501106
0.496235
0.500956
0.498671
0.512023
0.498371
0.611268
0.496457
0.50168
0.497128
0.499959
0.500864
0.503748
0.498985
0.500156
0.504682
0.500198
0.49931
0.499319
0.499945
0.525734
0.50551
0.571038
0.500995
0.500534
0.498502
0.504266
0.507353
0.497011
0.510963
0.504197
0.498205
0.50082
0.573282
0.497351
0.501653
0.4992
0.506398
0.505281
0.503103
0.501822
0.50541
0.499176
0.502207
0.546398
0.500725
0.497877
0.500874
0.587522
0.501901
0.500151
0.501388
0.509252
0.499553
0.499818
0.497638
0.539094
0.501431
0.497943
0.496608
0.501218
0.500626
0.499579
0.60239
0.50532
0.501203
0.501605
0.500841
0.499263
0.497803
0.501345
0.501386
0.500881
0.498547
0.501717
0.502238
0.50441
0.507382
0.498748
0.50064
0.502267
0.501277
0.502035
0.501173
0.524109
0.502062
0.4974
0.496858
0.500282
0.498741
0.501858
0.501004
0.498381
0.500952
0.50065
0.499523
0.497634
0.499312
0.500062
0.501581
0.499189
0.501941
0.497237
0.496457
0.498963
0.501007
0.503694
0.4981
0.501164
0.503275
0.501981
0.501846
0.498529
0.498963
0.497774
0.496935
0.50155
0.499478
0.49989
0.501135
0.497792
0.501226
0.497627
0.518529
0.501918
0.501489
0.506769
0.502262
0.499898
0.498213
0.496959
0.498002
0.498845
0.50165
0.499868
0.49543
0.500296
0.501005
0.501534
0.501617
0.497706
0.501498
0.499638
0.503817
0.501704
0.49932
0.501407
0.497433
0.49885
0.501477
0.499362
0.500605
0.500651
0.496459
0.501366
0.555877
0.501627
0.516745
0.501223
0.498569
0.495538
0.502081
0.497411
0.501584
0.498484
0.499791
0.498627
0.501899
0.503078
0.499241
0.500809
0.500238
0.502579
0.497638
0.496658
0.498126
0.497783
0.500093
0.500111
0.498475
0.500833
0.500945
0.502128
0.500786
0.498254
0.500221
0.498184
0.501761
0.497954
0.491715
0.498415
0.501898
0.498942
0.497199
0.501195
0.501996
0.515637
0.499199
0.498807
0.503833
0.499895
0.497483
0.497396
0.498744
0.498767
0.501006
0.51886
0.501364
0.503141
0.500761
0.49254
0.498273
0.496608
0.501262
0.497915
0.4965
0.501758
0.501373
0.497286
0.501551
0.497999
0.498422
0.50179
0.503284
0.500871
0.500115
0.501782
0.497742
0.493831
0.499059
0.543368
0.503366
0.498692
0.497136
0.501271
0.497465
0.503104
0.504919
0.498692
0.501228
0.529528
0.50199
0.501329
0.494958
0.503359
0.500585
0.501284
0.500898
0.501014
0.515794
0.496834
0.484122
0.493831
0.500411
0.497632
0.496443
0.501145
0.501043
0.50862
0.494268
0.572371
0.499704
0.500624
0.504296
0.499495
0.499418
0.50566
0.501383
0.501238
0.490153
0.49962
0.506997
0.501155
0.501294
0.498694
0.499799
0.501371
0.499139
0.507886
0.50158
0.501335
0.50678
0.499972
0.499467
0.500946
0.50049
0.497702
0.499209
0.532708
0.497061
0.505125
0.498423
0.508171
0.498538
0.498713
0.509277
0.499263
0.533631
0.499487
0.505889
0.50025
0.500025
0.500247
0.499487
0.504002
0.501467
0.498953
0.498008
0.500698
0.504885
0.504526
0.498902
0.507834
0.498457
0.497486
0.499137
0.501477
0.503021
0.498492
0.497825
0.504037
0.500298
0.495101
0.497894
0.497441
0.501043
0.505274
0.500807
0.506361
0.499127
0.498917
0.498943
0.492586
0.500474
0.500647
0.497913
0.505018
0.499564
0.494981
0.501525
0.498362
0.491221
0.501831
0.498692
0.493412
0.495831
0.530995
0.494667
0.498085
0.498258
0.504959
0.498174
0.495806
0.495028
0.500692
0.480659
0.500172
0.499374
0.498863
0.499519
0.502292
0.499689
0.495851
0.50257
0.48737
0.50093
0.499411
0.499729
0.499007
0.499625
0.499532
0.498613
0.498842
0.500716
0.501179
0.506386
0.499302
0.539234
0.497843
0.496329
0.491043
0.498992
0.498121
0.497384
0.539918
0.500792
0.500299
0.508214
0.50708
0.500552
0.501069
0.4984
0.4981
0.498274
0.657958
0.507673
0.506354
0.49413
0.53625
0.491241
0.501067
0.495008
0.506146
0.497976
0.500015
0.511877
0.497744
0.502013
0.48907
0.509762
0.49865
0.49738
0.497074
0.500662
0.505103
0.502711
0.499822
0.497133
0.518488
0.506807
0.499313
0.499657
0.498113
0.499131
0.507718
0.482463
0.57047
0.497031
0.503568
0.498062
0.525574
0.505444
0.5116
0.516987
0.507577
0.522289
0.509908
0.508084
0.500697
0.499788
0.502237
0.560529
0.502539
0.496256
0.505578
0.498778
0.502102
0.498641
0.50007
0.502457
0.504143
0.507048
0.507857
0.529934
0.489807
0.493431
0.509166
0.498319
0.497963
0.499162
0.506373
0.543598
0.504391
0.506606
0.49757
0.506807
0.499483
0.506334
0.51188
0.505948
0.515239
0.505495
0.509286
0.500802
0.497596
0.536738
0.499663
0.49863
0.485609
0.50346
0.489425
0.546664
0.513764
0.499559
0.498291
0.54449
0.499325
0.510894
0.505526
0.499176
0.499159
0.514761
0.500138
0.554722
0.656649
0.498584
0.498747
0.509743
0.541754
0.560702
0.506572
0.511117
0.498964
0.538609
0.509726
0.498673
0.499889
0.514167
0.499962
0.501027
0.489523
0.516136
0.500498
0.499994
0.532512
0.526342
0.502122
0.511311
0.512896
0.502772
0.518878
0.550368
0.528703
0.526101
0.545138
0.500623
0.488068
0.513722
0.553192
0.519684
0.501378
0.503499
0.501677
0.522041
0.547084
0.522888
0.51677
0.499184
0.525418
0.499983
0.552321
0.499924
0.499282
0.508964
0.498613
0.513231
0.49009
0.499895
0.497714
0.49913
0.530176
0.500501
0.499252
0.501253
0.515609
0.499753
0.535186
0.52885
0.500389
0.502761
0.499341
0.49616
0.588421
0.502372
0.507635
0.508166
0.601595
0.494342
0.502263
0.501336
0.517254
0.500893
0.515191
0.487299
0.504687
0.528153
0.544544
0.534726
0.515659
0.531664
0.513085
0.501169
0.502374
0.508971
0.500109
0.502301
0.444865
0.43594
0.495661
0.517714
0.451485
0.502169
0.508383
0.501529
0.51879
0.510731
0.502605
0.537958
0.506545
0.520941
0.495023
0.532655
0.547969
0.50954
0.575612
0.581004
0.576085
0.513628
0.50379
0.509104
0.500289
0.500186
0.73196
0.502401
0.50012
0.534338
0.518382
0.520576
0.528108
0.521394
0.49937
0.502493
0.541416
0.499592
0.656722
0.523922
0.450843
0.524656
0.504724
0.503998
0.524854
0.50043
0.499775
0.497452
0.503062
0.733049
0.510546
0.543015
0.502367
0.527278
0.56931
0.525512
0.505756
0.511605
0.499726
0.500151
0.503939
0.53081
0.553281
0.510836
0.512834
0.52209
0.561758
0.747638
0.5089
0.499673
0.511244
0.693785
0.512447
0.505004
0.513354
0.506258
0.504108
0.499885
0.531406
0.514596
0.49918
0.565655
0.629909
0.525172
0.500036
0.564819
0.544701
0.550582
0.548188
0.545903
0.502319
0.553494
0.508392
0.702886
0.499451
0.514634
0.557053
0.537689
0.506108
0.565475
0.573275
0.582432
0.500353
0.582346
0.593012
0.55918
0.496711
0.532717
0.543881
0.530914
0.540895
0.499886
0.605019
0.512749
0.670361
0.547187
0.546177
0.618275
0.52801
0.49971
0.53801
0.58419
0.548977
0.530561
0.536589
0.546002
0.547374
0.50929
0.553395
0.556623
0.520538
0.557081
0.533767
0.565204
0.560255
0.575497
0.568676
0.517104
0.548186
0.500974
0.51181
0.506607
0.566831
0.543518
0.5206
0.632411
0.500617
0.612401
0.564273
0.500797
0.557937
0.551868
0.495378
0.519813
0.509076
0.558005
0.540072
0.499626
0.499711
0.518304
0.548872
0.540971
0.547144
0.602941
0.641758
0.528289
0.513225
0.583467
0.500241
0.552315
0.503349
0.500073
0.520433
0.51
0.549285
0.530497
0.499735
0.545262
0.551659
0.562723
0.500638
0.569192
0.577254
0.533876
0.586543
0.561887
0.546269
0.535065
0.516111
0.597044
0.573834
0.546416
0.547784
0.554521
0.557706
0.571757
0.562512
0.52177
0.544868
0.499953
0.516477
0.523399
0.490298
0.561252
0.513021
0.620751
0.608567
0.5651
0.539485
0.555694
0.551497
0.550691
0.500507
0.4884
0.527252
0.623012
0.485387
0.549175
0.567064
0.527061
0.546588
0.513858
0.518096
0.531399
0.526519
0.523886
0.539062
0.528172
0.493182
0.494855
0.521263
0.497033
0.514514
0.543818
0.563137